<LesHouchesEvents version="1.0">
<header>
<!--
#*********************************************************************
#                                                                    *
#                       MadGraph/MadEvent                            *
#                                                                    *
#                      The new web generation                        *
#                                                                    *
#                   http://madgraph.hep.uiuc.edu                     *
#                   http://madgraph.phys.ucl.ac.be                   *
#                   http://madgraph.roma2.infn.it                    *
#                                                                    *
#            CP3 team                      Tim Stelzer               *
#      Universite de Louvain          University of Illinois         *
#                                                                    *
#....................................................................*
#                                                                    *
# This file contains all the information necessary to reproduce      *
# the events generated:                                              *
#                                                                    *
# 1. software version                                                *
# 2. proc_card.dat      : code generation info including model       *
# 3. param_card.dat     : model primary parameters in the LH format  *
# 4. run_card.dat       : running parameters (collider and cuts)     *
# 5. pythia_card.dat    : present only in the pythia event file      *
# 6. pgs_card.dat       : present only in the pgs event file         *
#                                                                    *
#                                                                    *
#*********************************************************************
-->
<MGVersion>
# MG/ME version    : 4.5.2
# madgraph version : 4.4.5
# template version : 2.4.32
# helas version    : 3.8
# model version    : heft_1.5.0
</MGVersion>
<MGProcCard>
#*********************************************************************
#                        MadGraph/MadEvent                           *
#                   http://madgraph.hep.uiuc.edu                     *
#                                                                    *
#                          proc_card.dat                             *
#                                                                    *
# This file is used to generate the code for a specific process.     *
# Some notation/conventions:                                         *
#                                                                    *
# 0. Do not modify the TAGS and their order.                         *
# 1. hash/pound is a comment.                                        *
# 2. The number after the @ is used as an identifier for the class   *
#    of processes. It can be any positive integer.                   *
# 3. The number of lines for the max couplings depends on how many   *
#    different classes of couplings are present in the model         *
#    In the SM these are just two: QED (which include EW) and QCD    *
# 4. Write "end_coup" after  the couplings list,                     *
#    to tell MG that the couplings input is over.                    *
# 5. Write "done" after the proc list to                             *
#    to tell MG that the proc input is over.                         *
# 6. Some model names available at present are:                      *
#    sm     =  Standard Model                                        *
#    smckm =  Standard Model with Cabibbo matrix                     *
#    mssm   =  Minimal Supersymmetric Standard Model                 *
#    2hdm   =  Generic Two Higgs Doublet model                       *
#    heft   =  Higgs EFT (+Standard Model)                           *
#    usrmod =  User Model                                            *
# 7. Don't leave spaces between the particles name in the            *
#    definition of the multiparticles.                               *
#*********************************************************************
#*********************************************************************
# Process(es) requested : mg2 input                                  *
#*********************************************************************
# Begin PROCESS # This is TAG. Do not modify this line
pp>h  @1           # First Process
QCD=99             # Max QCD couplings
QED=0              # Max QED couplings
HIG=1              # Max HIGGS EFT coupling: (now max is 1)
end_coup           # End the couplings input
done               # this tells MG there are no more procs
# End PROCESS  # This is TAG. Do not modify this line
#*********************************************************************
# Model information                                                  *
#*********************************************************************
# Begin MODEL  # This is TAG. Do not modify this line
heft      
# End   MODEL  # This is TAG. Do not modify this line
#*********************************************************************
# Start multiparticle definitions                                    *
#*********************************************************************
# Begin MULTIPARTICLES # This is TAG. Do not modify this line
P uu~cc~dd~ss~g
J uu~cc~dd~ss~g
L+ e+mu+
L- e-mu-
vl vevm
vl~ ve~vm~
# End  MULTIPARTICLES # This is TAG. Do not modify this line
</MGProcCard>
<slha>
#******************************************************************
#                      MadGraph/MadEvent                          *
#******************************************************************
#   Les Houches friendly file for the SM parameters of MadGraph   *
#        Spectrum and decay widths produced by SMCalc             *
#******************************************************************
#*Please note the following IMPORTANT issues:                     *
#                                                                 *
#0. REFRAIN from editing this file by hand! Some of the parame-   *
#   ters are not independent                                      *
#   (such as G_Fermi, alpha_em, sin(theta_W),MZ,MW) and serious   *
#   problems might be encountered (such as violation of unitarity *
#   or gauge invariance).  Always use a calculator.               *
#                                                                 *
#1. alpha_S(MZ) has been used in the calculation of the parameters*
#   but, for consistency, it will be reset by madgraph to the     *
#   value expected IF the pdfs for collisions with hadrons are    *
#   used. This value is KEPT by madgraph when no pdf are used     *
#   lpp(i)=0 .                                                    *
#                                                                 *
#2. Values of the charm and bottom kinematic (pole) masses are    *
#   those used in the matrix elements and phase space UNLESS they *
#   are set to ZERO from the start in the model (particles.dat)   *
#   This happens, for example,  when using 5-flavor QCD where     *
#   charm and bottom are treated as partons in the initial state  *
#   and a zero mass might be hardwired in the model definition.   *
#                                                                 *
#******************************************************************
Block SMINPUTS      # Standard Model inputs
     1         1.32506980E+02   # alpha_em(MZ)(-1) SM MSbar
     2         1.16639000E-05   # G_Fermi
     3         1.18000000E-01   # alpha_s(MZ) SM MSbar
     4         9.11880000E+01   # Z mass (as input parameter)
Block MGYUKAWA     # Yukawa masses m/v=y/sqrt(2)
#    PDG          YMASS
     5         4.20000000E+00   # mbottom for the Yukawa  y_b
     4         1.42000000E+00   # mcharm  for the Yukawa  y_c
     6         1.64500000E+02   # mtop    for the Yukawa  y_t
    15         1.77700000E+00   # mtau    for the Yukawa  y_ta
Block MGCKM     # CKM elements for MadGraph
     1   1     9.75000000E-01   # Vud for Cabibbo matrix
Block MASS      #  Mass spectrum (kinematic masses)
#       PDG       Mass
         5     4.70000000E+00   # bottom   pole mass
         6     1.74300000E+02   # top      pole mass
        15     1.77700000E+00   # tau      mass
        23     9.11880000E+01   # Z        mass
        24     8.04190000E+01   # W        mass
        25     1.25000000E+02   # H        mass
#            PDG       Width
DECAY         6     1.50833649E+00   # top width
DECAY        23     2.44140351E+00   # Z   width
DECAY        24     2.04759951E+00   # W   width
DECAY        25     5.75308848E-03   # H   width
#        BR           NDA        ID1       ID2
     8.27451012E-02    2           4        -4   # BR( H -> c  cbar  )
     7.17809696E-01    2           5        -5   # BR( H -> b  bbar  )
     0.00000000E+00    2           6        -6   # BR( H -> t  tbar  )
     4.31720144E-02    2          15       -15   # BR( H -> tau- tau+)
     6.90597075E-03    2          23        23   # BR( H -> Z   Z^(*))
     7.45906395E-02    2          24       -24   # BR( H -> W   W^(*))
     3.01765558E-02    2          21        21   # BR( H -> g   g    )
     1.42800773E-03    2          22        22   # BR( H -> A   A    )
</slha>
<MGRunCard>
#*********************************************************************
#                       MadGraph/MadEvent                            *
#                  http://madgraph.hep.uiuc.edu                      *
#                                                                    *
#                        run_card.dat                                *
#                                                                    *
#  This file is used to set the parameters of the run.               *
#                                                                    *
#  Some notation/conventions:                                        *
#                                                                    *
#   Lines starting with a '# ' are info or comments                  *
#                                                                    *
#   mind the format:   value    = variable     ! comment             *
#*********************************************************************
#
#*******************                                                 
# Running parameters
#*******************                                                 
#                                                                    
#*********************************************************************
# Tag name for the run (one word)                                    *
#*********************************************************************
  'fermi'     = run_tag ! name of the run 
#*********************************************************************
# Run to generate the grid pack                                      *
#*********************************************************************
  .false.     = gridpack  !True = setting up the grid pack
#*********************************************************************
# Number of events and rnd seed                                      *
#*********************************************************************
  80000       = nevents ! Number of unweighted events requested 
    1234      = iseed   ! rnd seed (0=assigned automatically=default))
#*********************************************************************
# Collider type and energy                                           *
#*********************************************************************
        1     = lpp1  ! beam 1 type (0=NO PDF)
        1     = lpp2  ! beam 2 type (0=NO PDF)
     4000     = ebeam1  ! beam 1 energy in GeV
     4000     = ebeam2  ! beam 2 energy in GeV
#*********************************************************************
# Beam polarization from -100 (left-handed) to 100 (right-handed)    *
#*********************************************************************
        0     = polbeam1 ! beam polarization for beam 1
        0     = polbeam2 ! beam polarization for beam 2
#*********************************************************************
# PDF CHOICE: this automatically fixes also alpha_s and its evol.    *
#*********************************************************************
 'cteq6l1'    = pdlabel     ! PDF set                                     
#*********************************************************************
# Renormalization and factorization scales                           *
#*********************************************************************
 F        = fixed_ren_scale  ! if .true. use fixed ren scale
 F        = fixed_fac_scale  ! if .true. use fixed fac scale
 91.1880  = scale            ! fixed ren scale
 91.1880  = dsqrt_q2fact1    ! fixed fact scale for pdf1
 91.1880  = dsqrt_q2fact2    ! fixed fact scale for pdf2
 1        = scalefact        ! scale factor for event-by-event scales
#*********************************************************************
# Matching - Warning! ickkw > 1 is still beta
#*********************************************************************
 0        = ickkw            ! 0 no matching, 1 MLM, 2 CKKW matching
 1        = highestmult      ! for ickkw=2, highest mult group
 1        = ktscheme         ! for ickkw=1, 1 Durham kT, 2 Pythia pTE
 1        = alpsfact         ! scale factor for QCD emission vx
 F        = chcluster        ! cluster only according to channel diag
 F        = pdfwgt           ! for ickkw=1, perform pdf reweighting
#*********************************************************************
#                                                                    
#**********************************
# BW cutoff (M+/-bwcutoff*Gamma)
#**********************************
  15  = bwcutoff
#*******************                                                 
# Standard Cuts
#*******************                                                 
#                                                                    
#*********************************************************************
# Minimum and maximum pt's                                           *
#*********************************************************************
 20  = ptj       ! minimum pt for the jets 
  0  = ptb       ! minimum pt for the b 
 10  = pta       ! minimum pt for the photons 
 10  = ptl       ! minimum pt for the charged leptons 
  0  = misset    ! minimum missing Et (sum of neutrino's momenta)
  0  = ptheavy   ! minimum pt for one heavy final state
 1.0 = ptonium   ! minimum pt for the quarkonium states
 1d5 = ptjmax    ! maximum pt for the jets
 1d5 = ptbmax    ! maximum pt for the b
 1d5 = ptamax    ! maximum pt for the photons
 1d5 = ptlmax    ! maximum pt for the charged leptons
 1d5 = missetmax ! maximum missing Et (sum of neutrino's momenta)
#*********************************************************************
# Minimum and maximum E's (in the lab frame)                         *
#*********************************************************************
  0  = ej     ! minimum E for the jets 
  0  = eb     ! minimum E for the b 
  0  = ea     ! minimum E for the photons 
  0  = el     ! minimum E for the charged leptons 
 1d5  = ejmax ! maximum E for the jets
 1d5  = ebmax ! maximum E for the b
 1d5  = eamax ! maximum E for the photons
 1d5  = elmax ! maximum E for the charged leptons
#*********************************************************************
# Maximum and minimum rapidity                                       *
#*********************************************************************
   5  = etaj    ! max rap for the jets 
 1d2  = etab    ! max rap for the b 
 2.5  = etaa    ! max rap for the photons 
 2.5  = etal    ! max rap for the charged leptons 
 0.6  = etaonium ! max rap for the quarkonium states
 0d0  = etajmin ! min rap for the jets
 0d0  = etabmin ! min rap for the b
 0d0  = etaamin ! min rap for the photons
 0d0  = etalmin ! main rap for the charged leptons
#*********************************************************************
# Minimum and maximum DeltaR distance                                *
#*********************************************************************
 0.4 = drjj    ! min distance between jets 
 0   = drbb    ! min distance between b's 
 0.4 = drll    ! min distance between leptons 
 0.4 = draa    ! min distance between gammas 
 0   = drbj    ! min distance between b and jet 
 0.4 = draj    ! min distance between gamma and jet 
 0.4 = drjl    ! min distance between jet and lepton 
 0   = drab    ! min distance between gamma and b 
 0   = drbl    ! min distance between b and lepton 
 0.4 = dral    ! min distance between gamma and lepton 
 1d2 = drjjmax ! max distance between jets
 1d2 = drbbmax ! max distance between b's
 1d2 = drllmax ! max distance between leptons
 1d2 = draamax ! max distance between gammas
 1d2 = drbjmax ! max distance between b and jet
 1d2 = drajmax ! max distance between gamma and jet
 1d2 = drjlmax ! max distance between jet and lepton
 1d2 = drabmax ! max distance between gamma and b
 1d2 = drblmax ! max distance between b and lepton
 1d2 = dralmax ! maxdistance between gamma and lepton
#*********************************************************************
# Minimum and maximum invariant mass for pairs                       *
#*********************************************************************
 0   = mmjj    ! min invariant mass of a jet pair 
 0   = mmbb    ! min invariant mass of a b pair 
 0   = mmaa    ! min invariant mass of gamma gamma pair
 0   = mmll    ! min invariant mass of l+l- (same flavour) lepton pair
 1d5 = mmjjmax ! max invariant mass of a jet pair
 1d5 = mmbbmax ! max invariant mass of a b pair
 1d5 = mmaamax ! max invariant mass of gamma gamma pair
 1d5 = mmllmax ! max invariant mass of l+l- (same flavour) lepton pair
#*********************************************************************
# Minimum and maximum invariant mass for all letpons                 *
#*********************************************************************
 0   = mmnl    ! min invariant mass for all letpons (l+- and vl) 
 1d5 = mmnlmax ! max invariant mass for all letpons (l+- and vl) 
#*********************************************************************
# Minimum and maximum pt for 4-momenta sum of leptons                *
#*********************************************************************
 0   = ptllmin  ! Minimum pt for 4-momenta sum of leptons(l and vl)
 1d5 = ptllmax  ! Maximum pt for 4-momenta sum of leptons(l and vl)
#*********************************************************************
# Inclusive cuts                                                     *
#*********************************************************************
 0  = xptj ! minimum pt for at least one jet  
 0  = xptb ! minimum pt for at least one b 
 0  = xpta ! minimum pt for at least one photon 
 0  = xptl ! minimum pt for at least one charged lepton 
#*********************************************************************
# Control the pt's of the jets sorted by pt                          *
#*********************************************************************
 0   = ptj1min ! minimum pt for the leading jet in pt
 0   = ptj2min ! minimum pt for the second jet in pt
 0   = ptj3min ! minimum pt for the third jet in pt
 0   = ptj4min ! minimum pt for the fourth jet in pt
 1d5 = ptj1max ! maximum pt for the leading jet in pt 
 1d5 = ptj2max ! maximum pt for the second jet in pt
 1d5 = ptj3max ! maximum pt for the third jet in pt
 1d5 = ptj4max ! maximum pt for the fourth jet in pt
 0   = cutuse  ! reject event if fails any (0) / all (1) jet pt cuts
#*********************************************************************
# Control the Ht(k)=Sum of k leading jets                            *
#*********************************************************************
 0   = htjmin ! minimum jet HT=Sum(jet pt)
 1d5 = htjmax ! maximum jet HT=Sum(jet pt)
 0   = ht2min ! minimum Ht for the two leading jets
 0   = ht3min ! minimum Ht for the three leading jets
 0   = ht4min ! minimum Ht for the four leading jets
 1d5 = ht2max ! maximum Ht for the two leading jets
 1d5 = ht3max ! maximum Ht for the three leading jets
 1d5 = ht4max ! maximum Ht for the four leading jets
#*********************************************************************
# WBF cuts                                                           *
#*********************************************************************
 0   = xetamin ! minimum rapidity for two jets in the WBF case  
 0   = deltaeta ! minimum rapidity for two jets in the WBF case 
#*********************************************************************
# maximal pdg code for quark to be considered as a jet               *
# otherwise b cuts are applied                                       *
#*********************************************************************
 4 = maxjetflavor
#*********************************************************************
# Jet measure cuts                                                   *
#*********************************************************************
 0   = xqcut   ! minimum kt jet measure between partons
#*********************************************************************
</MGRunCard>
<MGGenerationInfo>
#  Number of Events        :       80000
#  Integrated weight (pb)  :  .74383E+01
#  Truncated wgt (pb)      :  .00000E+00
#  Unit wgt                :  .92979E-04
</MGGenerationInfo>
</header>
<init>
     2212     2212  0.40000000000E+04  0.40000000000E+04 0 0 10042 10042 3  1
  0.74383000000E+01  0.48406000000E-02  0.92978750000E-04   1
</init>
<event>
 13   1  9.2978750E-05  1.2500000E+02  7.5467720E-03  1.2380620E-01
   21   -1    0    0  502  501   0.0000000000E+00   0.0000000000E+00   1.1284580494E+01   1.1284580494E+01   0.0000000000E+00     0.000   1.
   21   -1    0    0  501  502   0.0000000000E+00   0.0000000000E+00  -3.4615819367E+02   3.4615819367E+02   0.0000000000E+00     0.000   1.
   25    2    1    2    0    0   0.0000000000E+00   0.0000000000E+00  -3.3487361318E+02   3.5744277417E+02   1.2500000000E+02  1.596E-08  -1.
3000002    2    3    0    0    0   4.6878456766E+01   1.8952952134E+01  -2.6851447996E+02   2.7341695276E+02   1.0000000000E+01  1.031E-10  -1.
3000002    2    3    0    0    0  -4.6878456766E+01  -1.8952952134E+01  -6.6359133215E+01   8.4025821415E+01   1.0000000000E+01  5.689E-10  -1.
3000001    1    4    0    0    0   3.9870595189E+01   1.9353081559E+01  -2.3916113480E+02   2.4323497801E+02   1.0000000000E+00     0.000  -1.
3000022   2   4   0   0   0   7.0078615764E+00   -4.0012942555E-01   -2.9353345160E+01   3.0181974745E+01   2.5000000000E-01   1.625069E+01   0.
3000001    1    5    0    0    0  -2.8607131316E+01  -1.6677845439E+01  -4.2370313531E+01   5.3784402566E+01   1.0000000000E+00     0.000  -1.
3000022   2   5   0   0   0   -1.8271325449E+01   -2.2751066948E+00   -2.3988819684E+01   3.0241418849E+01   2.5000000000E-01   4.423774E+00   0.
13    1    7    0    0    0   3.7043032568E+00  -2.6095908717E-01  -1.5724048776E+01   1.6156939598E+01   1.0500000000E-01     0.000  -1.
-13    1    7    0    0    0   3.3035583196E+00  -1.3917033838E-01  -1.3629296384E+01   1.4025035147E+01   1.0500000000E-01     0.000   1.
13    1    9    0    0    0  -8.6113411442E+00  -1.0990996803E+00  -1.1412233613E+01   1.4339223042E+01   1.0500000000E-01     0.000  -1.
-13    1    9    0    0    0  -9.6599843049E+00  -1.1760070145E+00  -1.2576586071E+01   1.5902195807E+01   1.0500000000E-01     0.000   1.
</event>
<event>
 13   1  9.2978750E-05  1.2500000E+02  7.5467720E-03  1.2380620E-01
   21   -1    0    0  502  501   0.0000000000E+00   0.0000000000E+00   3.5761076910E+02   3.5761076910E+02   0.0000000000E+00     0.000   1.
   21   -1    0    0  501  502   0.0000000000E+00   0.0000000000E+00  -1.0923188946E+01   1.0923188946E+01   0.0000000000E+00     0.000   1.
   25    2    1    2    0    0   0.0000000000E+00   0.0000000000E+00   3.4668758015E+02   3.6853395804E+02   1.2500000000E+02  8.173E-09  -1.
3000002    2    3    0    0    0  -1.4600366816E+01   3.8180934328E+00  -3.0235224991E+00   1.8354569919E+01   1.0000000000E+01  9.987E-10  -1.
3000002    2    3    0    0    0   1.4600366816E+01  -3.8180934328E+00   3.4971110265E+02   3.5017938812E+02   1.0000000000E+01  1.124E-09  -1.
3000001    1    4    0    0    0  -2.1828469096E+00   3.3618484121E+00   2.4183426831E+00   4.7869851378E+00   1.0000000000E+00     0.000   1.
3000022   2   4   0   0   0   -1.2417519906E+01   4.5624502072E-01   -5.4418651822E+00   1.3567584781E+01   2.5000000000E-01   3.107816E+01   0.
3000001    1    5    0    0    0   6.0504167873E+00  -2.0669287330E+00   2.5085789645E+02   2.5094135560E+02   1.0000000000E+00     0.000  -1.
3000022   2   5   0   0   0   8.5499500284E+00   -1.7511646998E+00   9.8853206195E+01   9.9238032520E+01   2.5000000000E-01   1.572339E+00   0.
13    1    7    0    0    0  -7.0373609148E+00   2.3651577923E-01  -3.1511771439E+00   7.7150068536E+00   1.0500000000E-01     0.000  -1.
-13    1    7    0    0    0  -5.3801589914E+00   2.1972924149E-01  -2.2906880383E+00   5.8525779278E+00   1.0500000000E-01     0.000   1.
13    1    9    0    0    0   3.9742880168E+00  -8.4130162953E-01   4.5313387324E+01   4.5495239855E+01   1.0500000000E-01     0.000  -1.
-13    1    9    0    0    0   4.5756620117E+00  -9.0986307025E-01   5.3539818871E+01   5.3742792665E+01   1.0500000000E-01     0.000   1.
</event>
<event>
 13   1  9.2978750E-05  1.2500000E+02  7.5467720E-03  1.2380620E-01
   21   -1    0    0  502  501   0.0000000000E+00   0.0000000000E+00   3.2795665952E+01   3.2795665952E+01   0.0000000000E+00     0.000   1.
   21   -1    0    0  501  502   0.0000000000E+00   0.0000000000E+00  -1.1910872631E+02   1.1910872631E+02   0.0000000000E+00     0.000   1.
   25    2    1    2    0    0   0.0000000000E+00   0.0000000000E+00  -8.6313060356E+01   1.5190439226E+02   1.2500000000E+02  2.674E-08  -1.
3000002    2    3    0    0    0   4.1803550243E+01  -4.1375374748E+01  -2.0526008114E+01   6.3093386798E+01   1.0000000000E+01  4.123E-11  -1.
3000002    2    3    0    0    0  -4.1803550243E+01   4.1375374748E+01  -6.5787052242E+01   8.8811005462E+01   1.0000000000E+01  2.425E-10  -1.
3000001    1    4    0    0    0   1.4826175461E+00  -2.9695305588E+00  -3.3467051630E+00   4.8183712991E+00   1.0000000000E+00     0.000   1.
3000022   2   4   0   0   0   4.0320932697E+01   -3.8405844190E+01   -1.7179302951E+01   5.8275015499E+01   2.5000000000E-01   5.947790E+00   0.
3000001    1    5    0    0    0  -3.7184168667E+01   3.1506340438E+01  -5.4506321998E+01   7.3124900171E+01   1.0000000000E+00     0.000   1.
3000022   2   5   0   0   0   -4.6193815758E+00   9.8690343108E+00   -1.1280730244E+01   1.5686105291E+01   2.5000000000E-01   1.425730E+01   0.
13    1    7    0    0    0   1.4075367734E+01  -1.3379122971E+01  -5.9361129038E+00   2.0306781373E+01   1.0500000000E-01     0.000  -1.
-13    1    7    0    0    0   2.6245564963E+01  -2.5026721219E+01  -1.1243190047E+01   3.7968234126E+01   1.0500000000E-01     0.000   1.
13    1    9    0    0    0  -3.4565149234E+00   7.3138566283E+00  -8.3810072095E+00   1.1648703835E+01   1.0500000000E-01     0.000   1.
-13    1    9    0    0    0  -1.1628666524E+00   2.5551776825E+00  -2.8997230348E+00   4.0374014562E+00   1.0500000000E-01     0.000  -1.
</event>
<event>
 13   1  9.2978750E-05  1.2500000E+02  7.5467720E-03  1.2380620E-01
   21   -1    0    0  502  501   0.0000000000E+00   0.0000000000E+00   2.8787750675E+02   2.8787750675E+02   0.0000000000E+00     0.000   1.
   21   -1    0    0  501  502   0.0000000000E+00   0.0000000000E+00  -1.3569139333E+01   1.3569139333E+01   0.0000000000E+00     0.000   1.
   25    2    1    2    0    0   0.0000000000E+00   0.0000000000E+00   2.7430836741E+02   3.0144664608E+02   1.2500000000E+02  6.743E-08  -1.
3000002    2    3    0    0    0  -3.6953286400E+01  -5.4763121048E-01   2.5628698989E+02   2.5913098322E+02   1.0000000000E+01  1.094E-09   1.
3000002    2    3    0    0    0   3.6953286400E+01   5.4763121048E-01   1.8021377517E+01   4.2315662861E+01   1.0000000000E+01  1.465E-09   1.
3000001    1    4    0    0    0  -1.4785624942E+01  -7.9264253654E-01   7.1878653153E+01   7.3394712114E+01   1.0000000000E+00     0.000  -1.
3000022   2   4   0   0   0   -2.2167661458E+01   2.4501132606E-01   1.8440833674E+02   1.8573627111E+02   2.5000000000E-01   2.920906E+00   0.
3000001    1    5    0    0    0   1.5076190588E+01   4.3199954135E-01   1.2837063742E+01   1.9830994724E+01   1.0000000000E+00     0.000  -1.
3000022   2   5   0   0   0   2.1877095813E+01   1.1563166914E-01   5.1843137748E+00   2.2484668136E+01   2.5000000000E-01   3.862695E+00   0.
13    1    7    0    0    0  -8.2814835488E+00   1.5122470140E-01   6.8848110715E+01   6.9344640836E+01   1.0500000000E-01     0.000  -1.
-13    1    7    0    0    0  -1.3886177910E+01   9.3786624659E-02   1.1556022602E+02   1.1639163027E+02   1.0500000000E-01     0.000   1.
13    1    9    0    0    0   1.0805209790E+01   8.7379647524E-02   2.6229568870E+00   1.1119852590E+01   1.0500000000E-01     0.000  -1.
-13    1    9    0    0    0   1.1071886023E+01   2.8252021612E-02   2.5613568878E+00   1.1364815546E+01   1.0500000000E-01     0.000   1.
</event>
<event>
 13   1  9.2978750E-05  1.2500000E+02  7.5467720E-03  1.2380620E-01
   21   -1    0    0  502  501   0.0000000000E+00   0.0000000000E+00   7.9515723364E+01   7.9515723364E+01   0.0000000000E+00     0.000   1.
   21   -1    0    0  501  502   0.0000000000E+00   0.0000000000E+00  -4.9125504174E+01   4.9125504174E+01   0.0000000000E+00     0.000   1.
   25    2    1    2    0    0   0.0000000000E+00   0.0000000000E+00   3.0390219190E+01   1.2864122754E+02   1.2500000000E+02  5.496E-08  -1.
3000002    2    3    0    0    0  -1.5868167654E+01  -3.9402843458E+01   6.1240673146E+01   7.5198423286E+01   1.0000000000E+01  5.146E-10  -1.
3000002    2    3    0    0    0   1.5868167654E+01   3.9402843458E+01  -3.0850453956E+01   5.3442804254E+01   1.0000000000E+01  4.338E-10  -1.
3000001    1    4    0    0    0  -1.1711488566E+01  -2.2014654527E+01   4.2580185352E+01   4.9354596169E+01   1.0000000000E+00     0.000  -1.
3000022   2   4   0   0   0   -4.1566790881E+00   -1.7388188931E+01   1.8660487794E+01   2.5843827117E+01   2.5000000000E-01   2.009466E+01   0.
3000001    1    5    0    0    0   6.9312486681E-01  -5.2925551305E-02  -1.7052929781E+00   2.0955303234E+00   1.0000000000E+00     0.000  -1.
3000022   2   5   0   0   0   1.5175042787E+01   3.9455769009E+01   -2.9145160978E+01   5.1347273931E+01   2.5000000000E-01   1.376449E+00   0.
13    1    7    0    0    0  -1.3463136108E+00  -5.6264482879E+00   5.9646346686E+00   8.3100765584E+00   1.0500000000E-01     0.000  -1.
-13    1    7    0    0    0  -2.8103654773E+00  -1.1761740643E+01   1.2695853126E+01   1.7533750559E+01   1.0500000000E-01     0.000   1.
13    1    9    0    0    0   1.1162694553E+01   2.9073443015E+01  -2.1437099282E+01   3.7807817829E+01   1.0500000000E-01     0.000  -1.
-13    1    9    0    0    0   4.0123482340E+00   1.0382325995E+01  -7.7080616961E+00   1.3539456101E+01   1.0500000000E-01     0.000   1.
</event>
<event>
 13   1  9.2978750E-05  1.2500000E+02  7.5467720E-03  1.2380620E-01
   21   -1    0    0  502  501   0.0000000000E+00   0.0000000000E+00   5.5077526121E+02   5.5077526121E+02   0.0000000000E+00     0.000   1.
   21   -1    0    0  501  502   0.0000000000E+00   0.0000000000E+00  -7.0922756977E+00   7.0922756977E+00   0.0000000000E+00     0.000   1.
   25    2    1    2    0    0   0.0000000000E+00   0.0000000000E+00   5.4368298551E+02   5.5786753691E+02   1.2500000000E+02  6.666E-09  -1.
3000002    2    3    0    0    0   3.7188813064E+01   5.5422240456E+00   5.3543670025E+01   6.6186468891E+01   1.0000000000E+01  3.686E-10  -1.
3000002    2    3    0    0    0  -3.7188813064E+01  -5.5422240456E+00   4.9013931548E+02   4.9168106802E+02   1.0000000000E+01  1.101E-09  -1.
3000001    1    4    0    0    0   2.6324841695E+01   8.3578690259E+00   3.6641484589E+01   4.5896074536E+01   1.0000000000E+00     0.000  -1.
3000022   2   4   0   0   0   1.0863971369E+01   -2.8156449803E+00   1.6902185437E+01   2.0290394356E+01   2.5000000000E-01   1.993277E+00   0.
3000001    1    5    0    0    0  -4.6368108006E+00   2.2544025042E+00   5.1821614129E+01   5.2087062078E+01   1.0000000000E+00     0.000   1.
3000022   2   5   0   0   0   -3.2552002263E+01   -7.7966265499E+00   4.3831770136E+02   4.3959400594E+02   2.5000000000E-01   3.492936E+00   0.
13    1    7    0    0    0   3.0278819961E+00  -8.0270287983E-01   4.6555221781E+00   5.6122467022E+00   1.0500000000E-01     0.000   1.
-13    1    7    0    0    0   7.8360893733E+00  -2.0129421005E+00   1.2246663259E+01   1.4678147653E+01   1.0500000000E-01     0.000  -1.
13    1    9    0    0    0  -1.8700401179E+01  -4.4186601254E+00   2.5199290190E+02   2.5272448080E+02   1.0500000000E-01     0.000   1.
-13    1    9    0    0    0  -1.3851601084E+01  -3.3779664244E+00   1.8632479945E+02   1.8686952514E+02   1.0500000000E-01     0.000  -1.
</event>
<event>
 13   1  9.2978750E-05  1.2500000E+02  7.5467720E-03  1.2380620E-01
   21   -1    0    0  502  501   0.0000000000E+00   0.0000000000E+00   5.7384193037E+01   5.7384193037E+01   0.0000000000E+00     0.000  -1.
   21   -1    0    0  501  502   0.0000000000E+00   0.0000000000E+00  -6.8071881703E+01   6.8071881703E+01   0.0000000000E+00     0.000  -1.
   25    2    1    2    0    0   0.0000000000E+00   0.0000000000E+00  -1.0687688666E+01   1.2545607474E+02   1.2500000000E+02  3.164E-08  -1.
3000002    2    3    0    0    0  -5.1595593229E+01   2.7066447958E+01   1.5016922100E+01   6.0993489776E+01   1.0000000000E+01  3.222E-10   1.
3000002    2    3    0    0    0   5.1595593229E+01  -2.7066447958E+01  -2.5704610766E+01   6.4462584964E+01   1.0000000000E+01  3.343E-10   1.
3000001    1    4    0    0    0  -3.2627083685E+00   4.5586991688E+00   2.5430445517E+00   6.2365118136E+00   1.0000000000E+00     0.000   1.
3000022   2   4   0   0   0   -4.8332884860E+01   2.2507748789E+01   1.2473877548E+01   5.4756977962E+01   2.5000000000E-01   1.505090E+00   0.
3000001    1    5    0    0    0   2.2104626323E+01  -1.1276561934E+01  -1.6323297804E+01   2.9719108417E+01   1.0000000000E+00     0.000   1.
3000022   2   5   0   0   0   2.9490966906E+01   -1.5789886023E+01   -9.3813129615E+00   3.4743476547E+01   2.5000000000E-01   6.331460E+00   0.
13    1    7    0    0    0  -3.5382682544E+01   1.6448443645E+01   9.1532234530E+00   4.0078398757E+01   1.0500000000E-01     0.000   1.
-13    1    7    0    0    0  -1.2950202316E+01   6.0593051435E+00   3.3206540949E+00   1.4678579205E+01   1.0500000000E-01     0.000  -1.
13    1    9    0    0    0   1.5683803710E+01  -8.3660164537E+00  -5.0488035963E+00   1.8478998156E+01   1.0500000000E-01     0.000   1.
-13    1    9    0    0    0   1.3807163196E+01  -7.4238695696E+00  -4.3325093652E+00   1.6264478391E+01   1.0500000000E-01     0.000  -1.
</event>
<event>
 13   1  9.2978750E-05  1.2500000E+02  7.5467720E-03  1.2380620E-01
   21   -1    0    0  502  501   0.0000000000E+00   0.0000000000E+00   3.3089596492E+00   3.3089596492E+00   0.0000000000E+00     0.000   1.
   21   -1    0    0  501  502   0.0000000000E+00   0.0000000000E+00  -1.1805069913E+03   1.1805069913E+03   0.0000000000E+00     0.000   1.
   25    2    1    2    0    0   0.0000000000E+00   0.0000000000E+00  -1.1771980317E+03   1.1838159510E+03   1.2500000000E+02  2.639E-08  -1.
3000002    2    3    0    0    0   5.0588531787E+01  -3.4954772538E+01  -5.4104382973E+02   5.4461863846E+02   1.0000000000E+01  6.744E-10   1.
3000002    2    3    0    0    0  -5.0588531787E+01   3.4954772538E+01  -6.3615420197E+02   6.3919731254E+02   1.0000000000E+01  5.556E-10   1.
3000001    1    4    0    0    0   1.2963421146E+01  -1.4138288045E+01  -1.8085235759E+02   1.8186950465E+02   1.0000000000E+00     0.000  -1.
3000022   2   4   0   0   0   3.7625110641E+01   -2.0816484493E+01   -3.6019147214E+02   3.6274913381E+02   2.5000000000E-01   2.050707E+00   0.
3000001    1    5    0    0    0  -4.3204956785E+01   2.6594624370E+01  -5.4673815942E+02   5.4908793221E+02   1.0000000000E+00     0.000   1.
3000022   2   5   0   0   0   -7.3835750015E+00   8.3601481676E+00   -8.9416042553E+01   9.0109380328E+01   2.5000000000E-01   2.747091E-01   0.
13    1    7    0    0    0   1.3488563407E+01  -7.4492061301E+00  -1.2955303805E+02   1.3046621290E+02   1.0500000000E-01     0.000  -1.
-13    1    7    0    0    0   2.4136547234E+01  -1.3367278363E+01  -2.3063843409E+02   2.3228292091E+02   1.0500000000E-01     0.000   1.
13    1    9    0    0    0  -4.7390654921E+00   5.3210004940E+00  -5.7519825914E+01   5.7959582350E+01   1.0500000000E-01     0.000  -1.
-13    1    9    0    0    0  -2.6445095094E+00   3.0391476736E+00  -3.1896216639E+01   3.2149797978E+01   1.0500000000E-01     0.000   1.
</event>
<event>
 13   1  9.2978750E-05  1.2500000E+02  7.5467720E-03  1.2380620E-01
   21   -1    0    0  502  501   0.0000000000E+00   0.0000000000E+00   1.2669158093E+01   1.2669158093E+01   0.0000000000E+00     0.000  -1.
   21   -1    0    0  501  502   0.0000000000E+00   0.0000000000E+00  -3.0832751248E+02   3.0832751248E+02   0.0000000000E+00     0.000  -1.
   25    2    1    2    0    0   0.0000000000E+00   0.0000000000E+00  -2.9565835438E+02   3.2099667057E+02   1.2500000000E+02  1.673E-09  -1.
3000002    2    3    0    0    0   1.0641717987E+01   1.7772133087E+01   1.4042180027E+00   2.3044884560E+01   1.0000000000E+01  7.697E-10  -1.
3000002    2    3    0    0    0  -1.0641717987E+01  -1.7772133087E+01  -2.9706257238E+02   2.9795178601E+02   1.0000000000E+01  3.894E-10  -1.
3000001    1    4    0    0    0   7.7053557701E+00   1.0274462275E+01  -3.8285394719E+00   1.3438556361E+01   1.0000000000E+00     0.000   1.
3000022   2   4   0   0   0   2.9363622171E+00   7.4976708117E+00   5.2327574745E+00   9.6063281985E+00   2.5000000000E-01   5.325355E+00   0.
3000001    1    5    0    0    0   1.5132562323E-01  -3.7588080448E+00  -1.0616909726E+02   1.0624042898E+02   1.0000000000E+00     0.000   1.
3000022   2   5   0   0   0   -1.0793043610E+01   -1.4013325042E+01   -1.9089347513E+02   1.9171135703E+02   2.5000000000E-01   5.894660E+00   0.
13    1    7    0    0    0   1.6485416072E+00   4.2319820075E+00   3.0291276976E+00   5.4602198445E+00   1.0500000000E-01     0.000   1.
-13    1    7    0    0    0   1.2878206099E+00   3.2656888042E+00   2.2036297770E+00   4.1461083540E+00   1.0500000000E-01     0.000  -1.
13    1    9    0    0    0  -4.6816519181E+00  -5.9713804278E+00  -8.1927957424E+01   8.2278651433E+01   1.0500000000E-01     0.000  -1.
-13    1    9    0    0    0  -6.1113916924E+00  -8.0419446139E+00  -1.0896551770E+02   1.0943270560E+02   1.0500000000E-01     0.000   1.
</event>
<event>
 13   1  9.2978750E-05  1.2500000E+02  7.5467720E-03  1.2380620E-01
   21   -1    0    0  502  501   0.0000000000E+00   0.0000000000E+00   9.0541905586E+01   9.0541905586E+01   0.0000000000E+00     0.000   1.
   21   -1    0    0  501  502   0.0000000000E+00   0.0000000000E+00  -4.3143006266E+01   4.3143006266E+01   0.0000000000E+00     0.000   1.
   25    2    1    2    0    0   0.0000000000E+00   0.0000000000E+00   4.7398899320E+01   1.3368491185E+02   1.2500000000E+02  3.388E-08  -1.
3000002    2    3    0    0    0   5.5910916785E+01  -3.9407629425E-01   5.1589371803E+01   7.6731018467E+01   1.0000000000E+01  1.247E-09  -1.
3000002    2    3    0    0    0  -5.5910916785E+01   3.9407629425E-01  -4.1904724833E+00   5.6953893383E+01   1.0000000000E+01  2.165E-10  -1.
3000001    1    4    0    0    0   2.8645928193E+01   4.6994811813E+00   2.5488747584E+01   3.8643894457E+01   1.0000000000E+00     0.000  -1.
3000022   2   4   0   0   0   2.7264988592E+01   -5.0935574755E+00   2.6100624219E+01   3.8087124010E+01   2.5000000000E-01   1.571408E+00   0.
3000001    1    5    0    0    0  -1.7566357120E+01   2.4237170824E-01  -5.9299366833E+00   1.8568785517E+01   1.0000000000E+00     0.000  -1.
3000022   2   5   0   0   0   -3.8344559665E+01   1.5170458601E-01   1.7394642000E+00   3.8385107866E+01   2.5000000000E-01   5.476960E+00   0.
13    1    7    0    0    0   1.7295278063E+01  -3.2854646018E+00   1.6599561308E+01   2.4196639882E+01   1.0500000000E-01     0.000  -1.
-13    1    7    0    0    0   9.9697105291E+00  -1.8080928737E+00   9.5010629110E+00   1.3890484128E+01   1.0500000000E-01     0.000   1.
13    1    9    0    0    0  -1.4160658737E+01   9.3330749114E-02   6.8871665005E-01   1.4178093035E+01   1.0500000000E-01     0.000   1.
-13    1    9    0    0    0  -2.4183900928E+01   5.8373836891E-02   1.0507475500E+00   2.4207014831E+01   1.0500000000E-01     0.000  -1.
</event>
<event>
 13   1  9.2978750E-05  1.2500000E+02  7.5467720E-03  1.2380620E-01
   21   -1    0    0  502  501   0.0000000000E+00   0.0000000000E+00   1.2344408472E+01   1.2344408472E+01   0.0000000000E+00     0.000  -1.
   21   -1    0    0  501  502   0.0000000000E+00   0.0000000000E+00  -3.1643881590E+02   3.1643881590E+02   0.0000000000E+00     0.000  -1.
   25    2    1    2    0    0   0.0000000000E+00   0.0000000000E+00  -3.0409440743E+02   3.2878322437E+02   1.2500000000E+02  2.117E-08  -1.
3000002    2    3    0    0    0   5.6975220214E+01  -2.2543787320E+01  -1.7098729717E+02   1.8190946611E+02   1.0000000000E+01  9.181E-10   1.
3000002    2    3    0    0    0  -5.6975220214E+01   2.2543787320E+01  -1.3310711026E+02   1.4687375826E+02   1.0000000000E+01  3.640E-10   1.
3000001    1    4    0    0    0   1.6878084721E+01  -5.0720283591E+00  -6.2265608438E+01   6.4719403657E+01   1.0000000000E+00     0.000  -1.
3000022   2   4   0   0   0   4.0097135493E+01   -1.7471758961E+01   -1.0872168873E+02   1.1719006245E+02   2.5000000000E-01   5.087484E+00   0.
3000001    1    5    0    0    0  -1.9737547148E+01   5.0224403641E+00  -5.3580174879E+01   5.7329144549E+01   1.0000000000E+00     0.000   1.
3000022   2   5   0   0   0   -3.7237673066E+01   1.7521346956E+01   -7.9526935381E+01   8.9544613716E+01   2.5000000000E-01   9.294340E+00   0.
13    1    7    0    0    0   1.8227279834E+01  -7.8773632845E+00  -4.9439738052E+01   5.3278375596E+01   1.0500000000E-01     0.000   1.
-13    1    7    0    0    0   2.1869855659E+01  -9.5943956759E+00  -5.9281950679E+01   6.3911686852E+01   1.0500000000E-01     0.000  -1.
13    1    9    0    0    0  -1.1503898737E+01   5.3610174139E+00  -2.4504330287E+01   2.7596257385E+01   1.0500000000E-01     0.000   1.
-13    1    9    0    0    0  -2.5733774329E+01   1.2160329542E+01  -5.5022605094E+01   6.1948356331E+01   1.0500000000E-01     0.000  -1.
</event>
<event>
 13   1  9.2978750E-05  1.2500000E+02  7.5467720E-03  1.2380620E-01
   21   -1    0    0  502  501   0.0000000000E+00   0.0000000000E+00   3.6299871504E+02   3.6299871504E+02   0.0000000000E+00     0.000  -1.
   21   -1    0    0  501  502   0.0000000000E+00   0.0000000000E+00  -1.0761057376E+01   1.0761057376E+01   0.0000000000E+00     0.000  -1.
   25    2    1    2    0    0   0.0000000000E+00   0.0000000000E+00   3.5223765767E+02   3.7375977242E+02   1.2500000000E+02  6.044E-08  -1.
3000002    2    3    0    0    0   5.9351299773E+01  -1.1915526609E+01   1.4052641712E+02   1.5333698337E+02   1.0000000000E+01  9.013E-11  -1.
3000002    2    3    0    0    0  -5.9351299773E+01   1.1915526609E+01   2.1171124055E+02   2.2042278905E+02   1.0000000000E+01  1.834E-11  -1.
3000001    1    4    0    0    0   4.6431763158E+01  -5.0536354956E+00   1.0591859107E+02   1.1576353396E+02   1.0000000000E+00     0.000  -1.
3000022   2   4   0   0   0   1.2919536615E+01   -6.8618911138E+00   3.4607826051E+01   3.7573449402E+01   2.5000000000E-01   9.778776E-01   0.
3000001    1    5    0    0    0  -4.0114865035E+01   4.2700617623E+00   1.2927454859E+02   1.3542652892E+02   1.0000000000E+00     0.000  -1.
3000022   2   5   0   0   0   -1.9236434738E+01   7.6454648471E+00   8.2436691964E+01   8.4996260130E+01   2.5000000000E-01   1.242840E+01   0.
13    1    7    0    0    0   7.7865399785E+00  -4.0930377076E+00   2.0939199366E+01   2.2712205036E+01   1.0500000000E-01     0.000   1.
-13    1    7    0    0    0   5.1329966364E+00  -2.7688534062E+00   1.3668626685E+01   1.4861244366E+01   1.0500000000E-01     0.000  -1.
13    1    9    0    0    0  -8.9260314190E+00   3.6144969391E+00   3.8245116724E+01   3.9439049219E+01   1.0500000000E-01     0.000  -1.
-13    1    9    0    0    0  -1.0310403319E+01   4.0309679080E+00   4.4191575239E+01   4.5557210911E+01   1.0500000000E-01     0.000   1.
</event>
<event>
 13   1  9.2978750E-05  1.2500000E+02  7.5467720E-03  1.2380620E-01
   21   -1    0    0  502  501   0.0000000000E+00   0.0000000000E+00   2.3792931025E+01   2.3792931025E+01   0.0000000000E+00     0.000   1.
   21   -1    0    0  501  502   0.0000000000E+00   0.0000000000E+00  -1.6417691439E+02   1.6417691439E+02   0.0000000000E+00     0.000   1.
   25    2    1    2    0    0   0.0000000000E+00   0.0000000000E+00  -1.4038398337E+02   1.8796984542E+02   1.2500000000E+02  6.439E-09  -1.
3000002    2    3    0    0    0   1.8670165063E+01  -3.5095384452E+00  -1.5845837943E+02   1.5990606598E+02   1.0000000000E+01  1.255E-09  -1.
3000002    2    3    0    0    0  -1.8670165063E+01   3.5095384452E+00   1.8074396063E+01   2.8063779443E+01   1.0000000000E+01  2.530E-10  -1.
3000001    1    4    0    0    0   5.3367668111E+00  -5.6268214546E+00  -4.9412523660E+01   5.0027389440E+01   1.0000000000E+00     0.000  -1.
3000022   2   4   0   0   0   1.3333398252E+01   2.1172830094E+00   -1.0904585577E+02   1.0987867654E+02   2.5000000000E-01   1.842245E+00   0.
3000001    1    5    0    0    0  -6.8002526075E-01   2.8258988745E+00   9.5355321928E-01   3.2182918677E+00   1.0000000000E+00     0.000  -1.
3000022   2   5   0   0   0   -1.7990139803E+01   6.8363957074E-01   1.7120842844E+01   2.4845487576E+01   2.5000000000E-01   7.382332E+00   0.
13    1    7    0    0    0   8.9362533331E+00   1.4457670276E+00  -7.2740054154E+01   7.3301250803E+01   1.0500000000E-01     0.000  -1.
-13    1    7    0    0    0   4.3971449193E+00   6.7151598172E-01  -3.6305801619E+01   3.6577425734E+01   1.0500000000E-01     0.000   1.
13    1    9    0    0    0  -5.2967767382E+00   2.1024209123E-01   5.1016598571E+00   7.3578532092E+00   1.0500000000E-01     0.000  -1.
-13    1    9    0    0    0  -1.2693363065E+01   4.7339747951E-01   1.2019182987E+01   1.7487634366E+01   1.0500000000E-01     0.000   1.
</event>
<event>
 13   1  9.2978750E-05  1.2500000E+02  7.5467720E-03  1.2380620E-01
   21   -1    0    0  502  501   0.0000000000E+00   0.0000000000E+00   7.2018085558E+01   7.2018085558E+01   0.0000000000E+00     0.000   1.
   21   -1    0    0  501  502   0.0000000000E+00   0.0000000000E+00  -5.4239847807E+01   5.4239847807E+01   0.0000000000E+00     0.000   1.
   25    2    1    2    0    0   0.0000000000E+00   0.0000000000E+00   1.7778237750E+01   1.2625793336E+02   1.2500000000E+02  1.857E-07  -1.
3000002    2    3    0    0    0   5.9610566374E+01  -1.4795064124E+01   3.0049938329E+00   6.2300429643E+01   1.0000000000E+01  2.748E-10  -1.
3000002    2    3    0    0    0  -5.9610566374E+01   1.4795064124E+01   1.4773243917E+01   6.3957503717E+01   1.0000000000E+01  8.948E-10  -1.
3000001    1    4    0    0    0   2.1524949866E+01  -1.8163881466E+00  -2.1644398656E+00   2.1732637497E+01   1.0000000000E+00     0.000  -1.
3000022   2   4   0   0   0   3.8085616507E+01   -1.2978675977E+01   5.1694336985E+00   4.0567792146E+01   2.5000000000E-01   1.504314E+00   0.
3000001    1    5    0    0    0  -2.3875469284E+01   6.1683030132E+00   1.0939913445E+01   2.6995697839E+01   1.0000000000E+00     0.000  -1.
3000022   2   5   0   0   0   -3.5735097089E+01   8.6267611105E+00   3.8333304719E+00   3.6961805878E+01   2.5000000000E-01   1.047191E+01   0.
13    1    7    0    0    0   1.6311442847E+01  -5.6103933612E+00   2.2597972864E+00   1.7397051192E+01   1.0500000000E-01     0.000   1.
-13    1    7    0    0    0   2.1774173660E+01  -7.3682826159E+00   2.9096364121E+00   2.3170740954E+01   1.0500000000E-01     0.000  -1.
13    1    9    0    0    0  -1.1471078645E+01   2.7896421902E+00   1.1838164980E+00   1.1865083031E+01   1.0500000000E-01     0.000  -1.
-13    1    9    0    0    0  -2.4264018444E+01   5.8371189203E+00   2.6495139738E+00   2.5096722847E+01   1.0500000000E-01     0.000   1.
</event>
<event>
 13   1  9.2978750E-05  1.2500000E+02  7.5467720E-03  1.2380620E-01
   21   -1    0    0  502  501   0.0000000000E+00   0.0000000000E+00   3.0342548664E+02   3.0342548664E+02   0.0000000000E+00     0.000   1.
   21   -1    0    0  501  502   0.0000000000E+00   0.0000000000E+00  -1.2873836154E+01   1.2873836154E+01   0.0000000000E+00     0.000   1.
   25    2    1    2    0    0   0.0000000000E+00   0.0000000000E+00   2.9055165049E+02   3.1629932280E+02   1.2500000000E+02  7.020E-08  -1.
3000002    2    3    0    0    0  -1.1762066679E+01  -9.3695196282E+00  -6.1279804089E+00   1.9070559890E+01   1.0000000000E+01  2.409E-10   1.
3000002    2    3    0    0    0   1.1762066679E+01   9.3695196282E+00   2.9667963090E+02   2.9722876291E+02   1.0000000000E+01  1.078E-10   1.
3000001    1    4    0    0    0  -7.4288217781E+00   2.3768812340E-01  -2.9606693256E+00   8.0628438848E+00   1.0000000000E+00     0.000  -1.
3000022   2   4   0   0   0   -4.3332449012E+00   -9.6072077516E+00   -3.1673110833E+00   1.1007716005E+01   2.5000000000E-01   3.565195E+00   0.
3000001    1    5    0    0    0   1.3148472038E+01   6.8320058049E+00   2.6524193317E+02   2.6565737658E+02   1.0000000000E+00     0.000   1.
3000022   2   5   0   0   0   -1.3864053584E+00   2.5375138233E+00   3.1437697729E+01   3.1571386329E+01   2.5000000000E-01   7.989322E-02   0.
13    1    7    0    0    0  -1.1574536585E+00  -2.5762021839E+00  -8.1270448732E-01   2.9407533469E+00   1.0500000000E-01     0.000  -1.
-13    1    7    0    0    0  -3.1757912427E+00  -7.0310055677E+00  -2.3546065960E+00   8.0669626584E+00   1.0500000000E-01     0.000   1.
13    1    9    0    0    0  -8.6029211787E-01   1.5231339574E+00   1.8366692258E+01   1.8450107020E+01   1.0500000000E-01     0.000  -1.
-13    1    9    0    0    0  -5.2611324058E-01   1.0143798659E+00   1.3071005471E+01   1.3121279308E+01   1.0500000000E-01     0.000   1.
</event>
<event>
 13   1  9.2978750E-05  1.2500000E+02  7.5467720E-03  1.2380620E-01
   21   -1    0    0  502  501   0.0000000000E+00   0.0000000000E+00   4.2989384181E+01   4.2989384181E+01   0.0000000000E+00     0.000   1.
   21   -1    0    0  501  502   0.0000000000E+00   0.0000000000E+00  -9.0865456075E+01   9.0865456075E+01   0.0000000000E+00     0.000   1.
   25    2    1    2    0    0   0.0000000000E+00   0.0000000000E+00  -4.7876071894E+01   1.3385484026E+02   1.2500000000E+02  8.227E-09  -1.
3000002    2    3    0    0    0   1.3928040940E+01  -3.4851136875E+01   2.8496530213E+01   4.8173066127E+01   1.0000000000E+01  2.053E-10   1.
3000002    2    3    0    0    0  -1.3928040940E+01   3.4851136875E+01  -7.6372602107E+01   8.5681774133E+01   1.0000000000E+01  3.632E-11   1.
3000001    1    4    0    0    0   1.0396561643E+01  -3.3224416409E+01   2.6690793236E+01   4.3878796511E+01   1.0000000000E+00     0.000   1.
3000022   2   4   0   0   0   3.5314792977E+00   -1.6267204657E+00   1.8057369775E+00   4.2942696160E+00   2.5000000000E-01   2.522103E+00   0.
3000001    1    5    0    0    0  -1.6489350774E+00   2.1636594665E+00  -1.3065306250E+01   1.3382923320E+01   1.0000000000E+00     0.000   1.
3000022   2   5   0   0   0   -1.2279105863E+01   3.2687477408E+01   -6.3307295857E+01   7.2298850813E+01   2.5000000000E-01   5.367982E-01   0.
13    1    7    0    0    0   2.0117747731E+00  -9.0653488759E-01   9.5471006082E-01   2.4065617674E+00   1.0500000000E-01     0.000  -1.
-13    1    7    0    0    0   1.5197045246E+00  -7.2018557809E-01   8.5102691672E-01   1.8877078487E+00   1.0500000000E-01     0.000   1.
13    1    9    0    0    0  -6.4368512912E+00   1.7309179246E+01  -3.3423016042E+01   3.8185727269E+01   1.0500000000E-01     0.000  -1.
-13    1    9    0    0    0  -5.8422545718E+00   1.5378298162E+01  -2.9884279815E+01   3.4113123543E+01   1.0500000000E-01     0.000   1.
</event>
<event>
 13   1  9.2978750E-05  1.2500000E+02  7.5467720E-03  1.2380620E-01
   21   -1    0    0  502  501   0.0000000000E+00   0.0000000000E+00   2.8089452847E+01   2.8089452847E+01   0.0000000000E+00     0.000   1.
   21   -1    0    0  501  502   0.0000000000E+00   0.0000000000E+00  -1.3906465253E+02   1.3906465253E+02   0.0000000000E+00     0.000   1.
   25    2    1    2    0    0   0.0000000000E+00   0.0000000000E+00  -1.1097519969E+02   1.6715410538E+02   1.2500000000E+02  6.722E-08  -1.
3000002    2    3    0    0    0  -6.1667354990E+01  -1.5502725182E+00  -5.4161119159E+01   8.2696389552E+01   1.0000000000E+01  8.923E-10   1.
3000002    2    3    0    0    0   6.1667354990E+01   1.5502725182E+00  -5.6814080531E+01   8.4457715828E+01   1.0000000000E+01  7.078E-10   1.
3000001    1    4    0    0    0  -4.8250244710E+01  -4.0223956394E+00  -3.8081433449E+01   6.1607315757E+01   1.0000000000E+00     0.000   1.
3000022   2   4   0   0   0   -1.3417110280E+01   2.4721231211E+00   -1.6079685709E+01   2.1089073794E+01   2.5000000000E-01   5.104974E+00   0.
3000001    1    5    0    0    0   6.0767941099E+01   2.8348904622E+00  -5.5912558441E+01   8.2631673471E+01   1.0000000000E+00     0.000   1.
3000022   2   5   0   0   0   8.9941389120E-01   -1.2846179440E+00   -9.0152209082E-01   1.8260423571E+00   2.5000000000E-01   7.439044E+00   0.
13    1    7    0    0    0  -4.3147950692E+00   7.6328947974E-01  -5.1028654684E+00   6.7268364264E+00   1.0500000000E-01     0.000  -1.
-13    1    7    0    0    0  -9.1023152108E+00   1.7088336414E+00  -1.0976820241E+01   1.4362237368E+01   1.0500000000E-01     0.000   1.
13    1    9    0    0    0   4.7354463207E-01  -5.7026879650E-01  -3.9187644320E-01   8.4501074879E-01   1.0500000000E-01     0.000   1.
-13    1    9    0    0    0   4.2586925913E-01  -7.1434914745E-01  -5.0964564762E-01   9.8103160830E-01   1.0500000000E-01     0.000  -1.
</event>
<event>
 13   1  9.2978750E-05  1.2500000E+02  7.5467720E-03  1.2380620E-01
   21   -1    0    0  502  501   0.0000000000E+00   0.0000000000E+00   2.2372428188E+01   2.2372428188E+01   0.0000000000E+00     0.000   1.
   21   -1    0    0  501  502   0.0000000000E+00   0.0000000000E+00  -1.7460107446E+02   1.7460107446E+02   0.0000000000E+00     0.000   1.
   25    2    1    2    0    0   0.0000000000E+00   0.0000000000E+00  -1.5222864628E+02   1.9697350265E+02   1.2500000000E+02  8.392E-08  -1.
3000002    2    3    0    0    0   1.7543231138E+01   5.2079978628E+01  -3.1931495597E+01   6.4340574630E+01   1.0000000000E+01  2.222E-10  -1.
3000002    2    3    0    0    0  -1.7543231138E+01  -5.2079978628E+01  -1.2029715068E+02   1.3263292802E+02   1.0000000000E+01  5.551E-10  -1.
3000001    1    4    0    0    0   1.1627229690E+01   3.9890359089E+01  -2.8392011696E+01   5.0334278048E+01   1.0000000000E+00     0.000   1.
3000022   2   4   0   0   0   5.9160014486E+00   1.2189619539E+01   -3.5394839007E+00   1.4006296582E+01   2.5000000000E-01   1.750072E+00   0.
3000001    1    5    0    0    0  -5.4012514284E-01  -4.2457299629E+00  -1.6653010904E+01   1.7223261313E+01   1.0000000000E+00     0.000  -1.
3000022   2   5   0   0   0   -1.7003105995E+01   -4.7834248665E+01   -1.0364413978E+02   1.1540966671E+02   2.5000000000E-01   2.133284E+00   0.
13    1    7    0    0    0   1.9807924491E+00   4.1421363519E+00  -1.1503039127E+00   4.7344541793E+00   1.0500000000E-01     0.000   1.
-13    1    7    0    0    0   3.9352089995E+00   8.0474831872E+00  -2.3891799879E+00   9.2718424023E+00   1.0500000000E-01     0.000  -1.
13    1    9    0    0    0  -7.9256067009E+00  -2.2493510376E+01  -4.8657298891E+01   5.4187793930E+01   1.0500000000E-01     0.000   1.
-13    1    9    0    0    0  -9.0774992945E+00  -2.5340738289E+01  -5.4986840888E+01   6.1221872777E+01   1.0500000000E-01     0.000  -1.
</event>
<event>
 13   1  9.2978750E-05  1.2500000E+02  7.5467720E-03  1.2380620E-01
   21   -1    0    0  502  501   0.0000000000E+00   0.0000000000E+00   8.0059073424E+01   8.0059073424E+01   0.0000000000E+00     0.000  -1.
   21   -1    0    0  501  502   0.0000000000E+00   0.0000000000E+00  -4.8792096048E+01   4.8792096048E+01   0.0000000000E+00     0.000  -1.
   25    2    1    2    0    0   0.0000000000E+00   0.0000000000E+00   3.1266977376E+01   1.2885116947E+02   1.2500000000E+02  2.984E-08  -1.
3000002    2    3    0    0    0  -1.0542287319E+01   2.0443919534E+01   7.4643667584E+01   7.8744973035E+01   1.0000000000E+01  1.942E-10   1.
3000002    2    3    0    0    0   1.0542287319E+01  -2.0443919534E+01  -4.3376690208E+01   5.0106196435E+01   1.0000000000E+01  5.033E-10   1.
3000001    1    4    0    0    0  -8.5174796776E+00   2.0686683625E+01   6.1678328722E+01   6.5617852551E+01   1.0000000000E+00     0.000   1.
3000022   2   4   0   0   0   -2.0248076414E+00   -2.4276409069E-01   1.2965338862E+01   1.3127120483E+01   2.5000000000E-01   3.021276E+00   0.
3000001    1    5    0    0    0   8.9902754256E+00  -1.6355707997E+01  -2.4997650249E+01   3.1212445503E+01   1.0000000000E+00     0.000   1.
3000022   2   5   0   0   0   1.5520118934E+00   -4.0882115376E+00   -1.8379039959E+01   1.8893750932E+01   2.5000000000E-01   4.882560E+00   0.
13    1    7    0    0    0  -8.7084437368E-01  -1.6674712671E-01   5.7788089456E+00   5.8473782464E+00   1.0500000000E-01     0.000   1.
-13    1    7    0    0    0  -1.1539632677E+00  -7.6016963980E-02   7.1865299160E+00   7.2797422368E+00   1.0500000000E-01     0.000  -1.
13    1    9    0    0    0   1.1969056835E+00  -3.1002283367E+00  -1.3979593901E+01   1.4369553563E+01   1.0500000000E-01     0.000  -1.
-13    1    9    0    0    0   3.5510620988E-01  -9.8798320091E-01  -4.3994460577E+00   4.5241973697E+00   1.0500000000E-01     0.000   1.
</event>
<event>
 13   1  9.2978750E-05  1.2500000E+02  7.5467720E-03  1.2380620E-01
   21   -1    0    0  502  501   0.0000000000E+00   0.0000000000E+00   1.7748362239E+02   1.7748362239E+02   0.0000000000E+00     0.000   1.
   21   -1    0    0  501  502   0.0000000000E+00   0.0000000000E+00  -2.2009072992E+01   2.2009072992E+01   0.0000000000E+00     0.000   1.
   25    2    1    2    0    0   0.0000000000E+00   0.0000000000E+00   1.5547454940E+02   1.9949269538E+02   1.2500000000E+02  2.674E-08  -1.
3000002    2    3    0    0    0   5.4775348833E+01  -2.4050259839E+01   5.3665726588E+01   8.0986196653E+01   1.0000000000E+01  3.444E-10   1.
3000002    2    3    0    0    0  -5.4775348833E+01   2.4050259839E+01   1.0180882281E+02   1.1850649873E+02   1.0000000000E+01  2.719E-10   1.
3000001    1    4    0    0    0   3.0216201552E+01  -8.4487393010E+00   3.0826759994E+01   4.3996467628E+01   1.0000000000E+00     0.000   1.
3000022   2   4   0   0   0   2.4559147281E+01   -1.5601520538E+01   2.2838966594E+01   3.6989729025E+01   2.5000000000E-01   5.494416E+00   0.
3000001    1    5    0    0    0  -4.7932790001E+01   2.0562924102E+01   8.1216527288E+01   9.6527252678E+01   1.0000000000E+00     0.000   1.
3000022   2   5   0   0   0   -6.8425588327E+00   3.4873357368E+00   2.0592295524E+01   2.1979246049E+01   2.5000000000E-01   3.182073E+00   0.
13    1    7    0    0    0   1.5362382051E+01  -9.7598200405E+00   1.4362865144E+01   2.3185335659E+01   1.0500000000E-01     0.000   1.
-13    1    7    0    0    0   9.1967652303E+00  -5.8417004973E+00   8.4761014500E+00   1.3804393366E+01   1.0500000000E-01     0.000  -1.
13    1    9    0    0    0  -2.2455013752E+00   1.0968281966E+00   6.6178908862E+00   7.0748012906E+00   1.0500000000E-01     0.000   1.
-13    1    9    0    0    0  -4.5970574575E+00   2.3905075401E+00   1.3974404638E+01   1.4904444758E+01   1.0500000000E-01     0.000  -1.
</event>
<event>
 13   1  9.2978750E-05  1.2500000E+02  7.5467720E-03  1.2380620E-01
   21   -1    0    0  502  501   0.0000000000E+00   0.0000000000E+00   2.2822822224E+02   2.2822822224E+02   0.0000000000E+00     0.000   1.
   21   -1    0    0  501  502   0.0000000000E+00   0.0000000000E+00  -1.7115543212E+01   1.7115543212E+01   0.0000000000E+00     0.000   1.
   25    2    1    2    0    0   0.0000000000E+00   0.0000000000E+00   2.1111267903E+02   2.4534376545E+02   1.2500000000E+02  2.484E-08  -1.
3000002    2    3    0    0    0  -1.0938875292E+01   5.3650366661E+01   1.6135609195E+02   1.7068628897E+02   1.0000000000E+01  7.950E-10   1.
3000002    2    3    0    0    0   1.0938875292E+01  -5.3650366661E+01   4.9756587083E+01   7.4657476475E+01   1.0000000000E+01  3.923E-10   1.
3000001    1    4    0    0    0  -1.2256495215E+01   4.5237292052E+01   1.3002947372E+02   1.3822191687E+02   1.0000000000E+00     0.000   1.
3000022   2   4   0   0   0   1.3176199236E+00   8.4130746087E+00   3.1326618227E+01   3.2464372105E+01   2.5000000000E-01   2.087487E+00   0.
3000001    1    5    0    0    0  -1.0830145551E+00  -1.6751923547E+01   1.3840315801E+01   2.1779674114E+01   1.0000000000E+00     0.000  -1.
3000022   2   5   0   0   0   1.2021889847E+01   -3.6898443114E+01   3.5916271282E+01   5.2877802361E+01   2.5000000000E-01   7.069513E+00   0.
13    1    7    0    0    0   8.9866884115E-01   5.8532646482E+00   2.1613454380E+01   2.2410282193E+01   1.0500000000E-01     0.000  -1.
-13    1    7    0    0    0   4.1895108249E-01   2.5598099605E+00   9.7131638465E+00   1.0054089912E+01   1.0500000000E-01     0.000   1.
13    1    9    0    0    0   8.2503949333E+00  -2.5421545521E+01   2.4683704251E+01   3.6381592513E+01   1.0500000000E-01     0.000  -1.
-13    1    9    0    0    0   3.7714949136E+00  -1.1476897593E+01   1.1232567031E+01   1.6496209848E+01   1.0500000000E-01     0.000   1.
</event>
<event>
 13   1  9.2978750E-05  1.2500000E+02  7.5467720E-03  1.2380620E-01
   21   -1    0    0  502  501   0.0000000000E+00   0.0000000000E+00   1.3084064510E+02   1.3084064510E+02   0.0000000000E+00     0.000  -1.
   21   -1    0    0  501  502   0.0000000000E+00   0.0000000000E+00  -2.9855019416E+01   2.9855019416E+01   0.0000000000E+00     0.000  -1.
   25    2    1    2    0    0   0.0000000000E+00   0.0000000000E+00   1.0098562569E+02   1.6069566452E+02   1.2500000000E+02  1.359E-09  -1.
3000002    2    3    0    0    0  -3.5396503652E+01   5.0248187748E+01   4.3634932503E+01   7.6038149486E+01   1.0000000000E+01  1.241E-09   1.
3000002    2    3    0    0    0   3.5396503652E+01  -5.0248187748E+01   5.7350693187E+01   8.4657515034E+01   1.0000000000E+01  1.977E-11   1.
3000001    1    4    0    0    0  -2.1490676240E+01   3.0855512124E+01   2.0678071343E+01   4.2924287160E+01   1.0000000000E+00     0.000   1.
3000022   2   4   0   0   0   -1.3905827412E+01   1.9392675623E+01   2.2956861160E+01   3.3113862326E+01   2.5000000000E-01   5.506576E+00   0.
3000001    1    5    0    0    0   3.1010660699E+01  -4.8403706934E+01   5.3416431932E+01   7.8478628443E+01   1.0000000000E+00     0.000   1.
3000022   2   5   0   0   0   4.3858429536E+00   -1.8444808135E+00   3.9342612556E+00   6.1788865916E+00   2.5000000000E-01   7.096194E+00   0.
13    1    7    0    0    0  -9.9473319132E+00   1.3941725977E+01   1.6475767577E+01   2.3765165214E+01   1.0500000000E-01     0.000   1.
-13    1    7    0    0    0  -3.9584954990E+00   5.4509496463E+00   6.4810935828E+00   9.3486971120E+00   1.0500000000E-01     0.000  -1.
13    1    9    0    0    0   1.9253175337E+00  -8.4653180781E-01   1.6657259552E+00   2.6849826192E+00   1.0500000000E-01     0.000   1.
-13    1    9    0    0    0   2.4605254198E+00  -9.9794900565E-01   2.2685353004E+00   3.4939039725E+00   1.0500000000E-01     0.000  -1.
</event>
<event>
 13   1  9.2978750E-05  1.2500000E+02  7.5467720E-03  1.2380620E-01
   21   -1    0    0  502  501   0.0000000000E+00   0.0000000000E+00   1.7036116271E+02   1.7036116271E+02   0.0000000000E+00     0.000  -1.
   21   -1    0    0  501  502   0.0000000000E+00   0.0000000000E+00  -2.2929228340E+01   2.2929228340E+01   0.0000000000E+00     0.000  -1.
   25    2    1    2    0    0   0.0000000000E+00   0.0000000000E+00   1.4743193436E+02   1.9329039105E+02   1.2500000000E+02  6.191E-08  -1.
3000002    2    3    0    0    0  -3.9099457658E+01  -4.7722961911E+01   7.3659826217E+01   9.6602374096E+01   1.0000000000E+01  2.066E-10  -1.
3000002    2    3    0    0    0   3.9099457658E+01   4.7722961911E+01   7.3772108143E+01   9.6688016954E+01   1.0000000000E+01  2.297E-10  -1.
3000001    1    4    0    0    0  -3.4451952680E+01  -4.6066219147E+01   6.7044249011E+01   8.8345712491E+01   1.0000000000E+00     0.000  -1.
3000022   2   4   0   0   0   -4.6475049773E+00   -1.6567427636E+00   6.6155772058E+00   8.2566616053E+00   2.5000000000E-01   6.241445E+00   -1.
3000001    1    5    0    0    0   2.1302759807E+01   1.9407392754E+01   3.8218611776E+01   4.7876056176E+01   1.0000000000E+00     0.000  -1.
3000022   2   5   0   0   0   1.7796697850E+01   2.8315569157E+01   3.5553496367E+01   4.8811960778E+01   2.5000000000E-01   4.092236E+00   0.
13    1    7    0    0    0  -1.4919534113E+00  -5.6672648590E-01   2.0760823195E+00   2.6207339981E+00   1.0500000000E-01     0.000  -1.
-13    1    7    0    0    0  -3.1555515660E+00  -1.0900162777E+00   4.5394948862E+00   5.6359276072E+00   1.0500000000E-01     0.000  -1.
13    1    9    0    0    0   9.3042044177E+00   1.4824209749E+01   1.8508818863E+01   2.5473767198E+01   1.0500000000E-01     0.000  -1.
-13    1    9    0    0    0   8.4924934327E+00   1.3491359408E+01   1.7044677504E+01   2.3338193580E+01   1.0500000000E-01     0.000   1.
</event>
<event>
 13   1  9.2978750E-05  1.2500000E+02  7.5467720E-03  1.2380620E-01
   21   -1    0    0  502  501   0.0000000000E+00   0.0000000000E+00   9.2365172350E+01   9.2365172350E+01   0.0000000000E+00     0.000  -1.
   21   -1    0    0  501  502   0.0000000000E+00   0.0000000000E+00  -4.2291373476E+01   4.2291373476E+01   0.0000000000E+00     0.000  -1.
   25    2    1    2    0    0   0.0000000000E+00   0.0000000000E+00   5.0073798874E+01   1.3465654583E+02   1.2500000000E+02  3.214E-08  -1.
3000002    2    3    0    0    0  -5.1208789182E+01  -3.4315275351E+01   2.7756143117E+01   6.8339459265E+01   1.0000000000E+01  1.930E-09   1.
3000002    2    3    0    0    0   5.1208789182E+01   3.4315275351E+01   2.2317655757E+01   6.6317086565E+01   1.0000000000E+01  1.282E-10   1.
3000001    1    4    0    0    0  -2.9958430239E+01  -1.8689991335E+01   2.1056193958E+01   4.1124039471E+01   1.0000000000E+00     0.000   1.
3000022   2   4   0   0   0   -2.1250358943E+01   -1.5625284017E+01   6.6999491597E+00   2.7215419794E+01   2.5000000000E-01   8.983164E-01   0.
3000001    1    5    0    0    0   1.2804474683E+01   1.2145115164E+01   9.9289099407E+00   2.0274162051E+01   1.0000000000E+00     0.000   1.
3000022   2   5   0   0   0   3.8404314499E+01   2.2170160187E+01   1.2388745816E+01   4.6042924513E+01   2.5000000000E-01   8.883814E-01   0.
13    1    7    0    0    0  -8.7721465447E+00  -6.5051214091E+00   2.8221776023E+00   1.1280198180E+01   1.0500000000E-01     0.000   1.
-13    1    7    0    0    0  -1.2478212399E+01  -9.1201626076E+00   3.8777715574E+00   1.5935221615E+01   1.0500000000E-01     0.000  -1.
13    1    9    0    0    0   1.2507284113E+01   7.1984590724E+00   4.0819372125E+00   1.4997439959E+01   1.0500000000E-01     0.000   1.
-13    1    9    0    0    0   2.5897030386E+01   1.4971701115E+01   8.3068086036E+00   3.1045484555E+01   1.0500000000E-01     0.000  -1.
</event>
<event>
 13   1  9.2978750E-05  1.2500000E+02  7.5467720E-03  1.2380620E-01
   21   -1    0    0  502  501   0.0000000000E+00   0.0000000000E+00   7.5517893442E+01   7.5517893442E+01   0.0000000000E+00     0.000  -1.
   21   -1    0    0  501  502   0.0000000000E+00   0.0000000000E+00  -5.1726151538E+01   5.1726151538E+01   0.0000000000E+00     0.000  -1.
   25    2    1    2    0    0   0.0000000000E+00   0.0000000000E+00   2.3791741904E+01   1.2724404498E+02   1.2500000000E+02  1.501E-08  -1.
3000002    2    3    0    0    0   4.2233548198E+01   4.4946787304E+01   1.3460910277E+01   6.3914649243E+01   1.0000000000E+01  1.438E-09   1.
3000002    2    3    0    0    0  -4.2233548198E+01  -4.4946787304E+01   1.0330831627E+01   6.3329395737E+01   1.0000000000E+01  5.144E-10   1.
3000001    1    4    0    0    0   2.6616983533E+01   3.1061284442E+01   4.4597249384E+00   4.1160130589E+01   1.0000000000E+00     0.000  -1.
3000022   2   4   0   0   0   1.5616564665E+01   1.3885502862E+01   9.0011853382E+00   2.2754518654E+01   2.5000000000E-01   2.308492E+00   0.
3000001    1    5    0    0    0  -2.0080210391E+01  -1.9561340130E+01   9.5322074282E+00   2.9626404701E+01   1.0000000000E+00     0.000  -1.
3000022   2   5   0   0   0   -2.2153337808E+01   -2.5385447174E+01   7.9862419921E-01   3.3702991037E+01   2.5000000000E-01   1.321144E+00   0.
13    1    7    0    0    0   6.8140676459E+00   5.9711064421E+00   3.9089709379E+00   9.8679637626E+00   1.0500000000E-01     0.000  -1.
-13    1    7    0    0    0   8.8024970194E+00   7.9143964199E+00   5.0922144004E+00   1.2886554891E+01   1.0500000000E-01     0.000   1.
13    1    9    0    0    0  -5.3536393642E+00  -6.1451447998E+00   2.1294026156E-01   8.1535653311E+00   1.0500000000E-01     0.000   1.
-13    1    9    0    0    0  -1.6799698443E+01  -1.9240302374E+01   5.8568393765E-01   2.5549425706E+01   1.0500000000E-01     0.000  -1.
</event>
<event>
 13   1  9.2978750E-05  1.2500000E+02  7.5467720E-03  1.2380620E-01
   21   -1    0    0  502  501   0.0000000000E+00   0.0000000000E+00   1.7484873437E+02   1.7484873437E+02   0.0000000000E+00     0.000   1.
   21   -1    0    0  501  502   0.0000000000E+00   0.0000000000E+00  -2.2340739349E+01   2.2340739349E+01   0.0000000000E+00     0.000   1.
   25    2    1    2    0    0   0.0000000000E+00   0.0000000000E+00   1.5250799502E+02   1.9718947372E+02   1.2500000000E+02  7.567E-08  -1.
3000002    2    3    0    0    0   4.5551547535E+01  -1.8897333764E+01   1.3473277155E+02   1.4382271182E+02   1.0000000000E+01  2.703E-10  -1.
3000002    2    3    0    0    0  -4.5551547535E+01   1.8897333764E+01   1.7775223472E+01   5.3366761900E+01   1.0000000000E+01  1.121E-09  -1.
3000001    1    4    0    0    0   3.3481695500E+01  -1.7698086177E+01   1.0840551411E+02   1.1483467106E+02   1.0000000000E+00     0.000  -1.
3000022   2   4   0   0   0   1.2069852035E+01   -1.1992475867E+00   2.6327257438E+01   2.8988040760E+01   2.5000000000E-01   6.760225E+00   0.
3000001    1    5    0    0    0  -2.5444888867E+01   7.8369406606E+00   5.0235225741E+00   2.7112649952E+01   1.0000000000E+00     0.000  -1.
3000022   2   5   0   0   0   -2.0106658668E+01   1.1060393103E+01   1.2751700898E+01   2.6254111948E+01   2.5000000000E-01   9.661209E-01   0.
13    1    7    0    0    0   8.8308339422E+00  -8.4580419435E-01   1.9291722500E+01   2.1233949111E+01   1.0500000000E-01     0.000  -1.
-13    1    7    0    0    0   3.2390180925E+00  -3.5344339231E-01   7.0355349382E+00   7.7540916490E+00   1.0500000000E-01     0.000   1.
13    1    9    0    0    0  -6.7146973119E+00   3.7233712708E+00   4.2128794214E+00   8.7584263216E+00   1.0500000000E-01     0.000  -1.
-13    1    9    0    0    0  -1.3391961356E+01   7.3370218324E+00   8.5388214762E+00   1.7495685626E+01   1.0500000000E-01     0.000   1.
</event>
<event>
 13   1  9.2978750E-05  1.2500000E+02  7.5467720E-03  1.2380620E-01
   21   -1    0    0  502  501   0.0000000000E+00   0.0000000000E+00   4.5433929361E+01   4.5433929361E+01   0.0000000000E+00     0.000   1.
   21   -1    0    0  501  502   0.0000000000E+00   0.0000000000E+00  -8.5976494988E+01   8.5976494988E+01   0.0000000000E+00     0.000   1.
   25    2    1    2    0    0   0.0000000000E+00   0.0000000000E+00  -4.0542565626E+01   1.3141042435E+02   1.2500000000E+02  1.990E-07  -1.
3000002    2    3    0    0    0  -3.0340451234E+01   2.4804945981E+01  -7.0363824319E+01   8.1159695040E+01   1.0000000000E+01  5.636E-10  -1.
3000002    2    3    0    0    0   3.0340451234E+01  -2.4804945981E+01   2.9821258693E+01   5.0250729310E+01   1.0000000000E+01  9.124E-10  -1.
3000001    1    4    0    0    0  -3.1004515705E+01   2.4776915771E+01  -6.9513288766E+01   8.0051688704E+01   1.0000000000E+00     0.000  -1.
3000022   2   4   0   0   0   6.6406447121E-01   2.8030209936E-02   -8.5053555273E-01   1.1080063362E+00   2.5000000000E-01   9.863948E-01   0.
3000001    1    5    0    0    0   2.2659572205E+00  -4.1928874881E+00   7.2963395146E+00   8.7721968700E+00   1.0000000000E+00     0.000  -1.
3000022   2   5   0   0   0   2.8074494013E+01   -2.0612058493E+01   2.2524919178E+01   4.1478532440E+01   2.5000000000E-01   4.238182E-01   0.
13    1    7    0    0    0   4.1404488457E-01  -2.8842019369E-02  -5.7872105305E-01   7.1986671389E-01   1.0500000000E-01     0.000   1.
-13    1    7    0    0    0   2.5001958664E-01   5.6872229305E-02  -2.7181449968E-01   3.8813962231E-01   1.0500000000E-01     0.000  -1.
13    1    9    0    0    0   1.6609131957E+01  -1.2227365944E+01   1.3407517101E+01   2.4599680529E+01   1.0500000000E-01     0.000  -1.
-13    1    9    0    0    0   1.1465362056E+01  -8.3846925492E+00   9.1174020772E+00   1.6878851912E+01   1.0500000000E-01     0.000   1.
</event>
<event>
 13   1  9.2978750E-05  1.2500000E+02  7.5467720E-03  1.2380620E-01
   21   -1    0    0  502  501   0.0000000000E+00   0.0000000000E+00   2.7223236484E+02   2.7223236484E+02   0.0000000000E+00     0.000  -1.
   21   -1    0    0  501  502   0.0000000000E+00   0.0000000000E+00  -1.4348955174E+01   1.4348955174E+01   0.0000000000E+00     0.000  -1.
   25    2    1    2    0    0   0.0000000000E+00   0.0000000000E+00   2.5788340967E+02   2.8658132001E+02   1.2500000000E+02  3.568E-08  -1.
3000002    2    3    0    0    0   4.8308744839E+01   2.0102586167E-01   2.1691721527E+02   2.2245640814E+02   1.0000000000E+01  8.068E-10  -1.
3000002    2    3    0    0    0  -4.8308744839E+01  -2.0102586167E-01   4.0966194396E+01   6.4124911872E+01   1.0000000000E+01  7.214E-12  -1.
3000001    1    4    0    0    0   4.4955714513E+01   2.7509450987E+00   1.9496945972E+02   2.0010665703E+02   1.0000000000E+00     0.000  -1.
3000022   2   4   0   0   0   3.3530303256E+00   -2.5499192370E+00   2.1947755559E+01   2.2349751108E+01   2.5000000000E-01   4.616521E+00   0.
3000001    1    5    0    0    0  -3.6723162869E+01  -2.0303572173E+00   2.5737829163E+01   4.4901546650E+01   1.0000000000E+00     0.000  -1.
3000022   2   5   0   0   0   -1.1585581970E+01   1.8293313556E+00   1.5228365233E+01   1.9223365222E+01   2.5000000000E-01   1.473343E+00   0.
13    1    7    0    0    0   1.1605703691E+00  -8.2504376175E-01   7.5833739992E+00   7.7166188841E+00   1.0500000000E-01     0.000  -1.
-13    1    7    0    0    0   2.1924599565E+00  -1.7248754753E+00   1.4364381560E+01   1.4633132223E+01   1.0500000000E-01     0.000   1.
13    1    9    0    0    0  -5.8824340586E+00   9.9502360694E-01   7.7160890275E+00   9.7540841350E+00   1.0500000000E-01     0.000   1.
-13    1    9    0    0    0  -5.7031479110E+00   8.3430774867E-01   7.5122762054E+00   9.4692810867E+00   1.0500000000E-01     0.000  -1.
</event>
<event>
 13   1  9.2978750E-05  1.2500000E+02  7.5467720E-03  1.2380620E-01
   21   -1    0    0  502  501   0.0000000000E+00   0.0000000000E+00   7.1540866839E+02   7.1540866839E+02   0.0000000000E+00     0.000  -1.
   21   -1    0    0  501  502   0.0000000000E+00   0.0000000000E+00  -5.4601658781E+00   5.4601658781E+00   0.0000000000E+00     0.000  -1.
   25    2    1    2    0    0   0.0000000000E+00   0.0000000000E+00   7.0994850251E+02   7.2086883426E+02   1.2500000000E+02  2.635E-09  -1.
3000002    2    3    0    0    0  -3.0687056979E+01  -5.2900202812E+01   3.0807965997E+02   3.1425022483E+02   1.0000000000E+01  6.372E-10   1.
3000002    2    3    0    0    0   3.0687056979E+01   5.2900202812E+01   4.0186884254E+02   4.0661860943E+02   1.0000000000E+01  1.238E-10   1.
3000001    1    4    0    0    0  -2.5102450056E+00  -1.3448691973E+00   1.0461588498E+01   1.0888288986E+01   1.0000000000E+00     0.000  -1.
3000022   2   4   0   0   0   -2.8176811974E+01   -5.1555333615E+01   2.9761807147E+02   3.0336193585E+02   2.5000000000E-01   4.342583E+00   0.
3000001    1    5    0    0    0   6.8824169659E+00   1.2392081248E+01   6.8816767126E+01   7.0268618733E+01   1.0000000000E+00     0.000  -1.
3000022   2   5   0   0   0   2.3804640013E+01   4.0508121564E+01   3.3305207542E+02   3.3634999069E+02   2.5000000000E-01   9.995358E+00   0.
13    1    7    0    0    0  -1.2396369847E+01  -2.2760477786E+01   1.3156799232E+02   1.3409644650E+02   1.0500000000E-01     0.000   1.
-13    1    7    0    0    0  -1.5780442127E+01  -2.8794855829E+01   1.6605007915E+02   1.6926548935E+02   1.0500000000E-01     0.000  -1.
13    1    9    0    0    0   8.5548053616E+00   1.4474502513E+01   1.1946715026E+02   1.2064454788E+02   1.0500000000E-01     0.000   1.
-13    1    9    0    0    0   1.5249834652E+01   2.6033619052E+01   2.1358492516E+02   2.1570544281E+02   1.0500000000E-01     0.000  -1.
</event>
<event>
 13   1  9.2978750E-05  1.2500000E+02  7.5467720E-03  1.2380620E-01
   21   -1    0    0  502  501   0.0000000000E+00   0.0000000000E+00   1.3947983812E+02   1.3947983812E+02   0.0000000000E+00     0.000  -1.
   21   -1    0    0  501  502   0.0000000000E+00   0.0000000000E+00  -2.8005839787E+01   2.8005839787E+01   0.0000000000E+00     0.000  -1.
   25    2    1    2    0    0   0.0000000000E+00   0.0000000000E+00   1.1147399834E+02   1.6748567791E+02   1.2500000000E+02  7.416E-09  -1.
3000002    2    3    0    0    0   2.3726815777E+01   4.1081825219E+01   1.0858306971E+02   1.1891577346E+02   1.0000000000E+01  6.179E-10   1.
3000002    2    3    0    0    0  -2.3726815777E+01  -4.1081825219E+01   2.8909286349E+00   4.8569904453E+01   1.0000000000E+01  3.208E-11   1.
3000001    1    4    0    0    0   1.7642253595E+01   3.1520174749E+01   7.1096709036E+01   7.9752821667E+01   1.0000000000E+00     0.000   1.
3000022   2   4   0   0   0   6.0845621816E+00   9.5616504697E+00   3.7486360670E+01   3.9162951790E+01   2.5000000000E-01   1.857574E-01   0.
3000001    1    5    0    0    0  -2.0898616044E+00  -6.7660517817E-01   1.2213525512E+00   2.7049987333E+00   1.0000000000E+00     0.000  -1.
3000022   2   5   0   0   0   -2.1636954172E+01   -4.0405220041E+01   1.6695760836E+00   4.5864905720E+01   2.5000000000E-01   8.423570E+00   0.
13    1    7    0    0    0   3.4737183602E+00   5.5476227054E+00   2.1800238245E+01   2.2761903468E+01   1.0500000000E-01     0.000  -1.
-13    1    7    0    0    0   2.6108438214E+00   4.0140277643E+00   1.5686122424E+01   1.6401048322E+01   1.0500000000E-01     0.000   1.
13    1    9    0    0    0  -1.1151291591E+01  -2.0719661977E+01   9.0359348706E-01   2.3547467014E+01   1.0500000000E-01     0.000  -1.
-13    1    9    0    0    0  -1.0485662581E+01  -1.9685558063E+01   7.6598259656E-01   2.2317438705E+01   1.0500000000E-01     0.000   1.
</event>
<event>
 13   1  9.2978750E-05  1.2500000E+02  7.5467720E-03  1.2380620E-01
   21   -1    0    0  502  501   0.0000000000E+00   0.0000000000E+00   4.4923604719E+01   4.4923604719E+01   0.0000000000E+00     0.000   1.
   21   -1    0    0  501  502   0.0000000000E+00   0.0000000000E+00  -8.6953173603E+01   8.6953173603E+01   0.0000000000E+00     0.000   1.
   25    2    1    2    0    0   0.0000000000E+00   0.0000000000E+00  -4.2029568884E+01   1.3187677832E+02   1.2500000000E+02  6.091E-09  -1.
3000002    2    3    0    0    0   2.9702225063E+01   2.6622122659E+01   2.8641434799E+01   5.0112786551E+01   1.0000000000E+01  1.235E-09  -1.
3000002    2    3    0    0    0  -2.9702225063E+01  -2.6622122659E+01  -7.0671003683E+01   8.1763991769E+01   1.0000000000E+01  2.866E-10  -1.
3000001    1    4    0    0    0   2.2400913351E+01   2.5102639146E+01   2.3490444732E+01   4.1045638072E+01   1.0000000000E+00     0.000  -1.
3000022   2   4   0   0   0   7.3013117119E+00   1.5194835125E+00   5.1509900674E+00   9.0671484786E+00   2.5000000000E-01   2.840520E+00   0.
3000001    1    5    0    0    0  -2.2387772945E+01  -2.5065672297E+01  -5.6909877587E+01   6.6100185114E+01   1.0000000000E+00     0.000  -1.
3000022   2   5   0   0   0   -7.3144521176E+00   -1.5564503614E+00   -1.3761126096E+01   1.5663806655E+01   2.5000000000E-01   8.716256E+00   0.
13    1    7    0    0    0   4.9421252918E+00   9.9101526379E-01   3.5244950808E+00   6.1514066869E+00   1.0500000000E-01     0.000  -1.
-13    1    7    0    0    0   2.3591864201E+00   5.2846824870E-01   1.6264949866E+00   2.9157417918E+00   1.0500000000E-01     0.000   1.
13    1    9    0    0    0  -3.3394870216E+00  -6.4240882709E-01  -6.2476819311E+00   7.1140296021E+00   1.0500000000E-01     0.000   1.
-13    1    9    0    0    0  -3.9749650961E+00  -9.1404153431E-01  -7.5134441649E+00   8.5497770533E+00   1.0500000000E-01     0.000  -1.
</event>
<event>
 13   1  9.2978750E-05  1.2500000E+02  7.5467720E-03  1.2380620E-01
   21   -1    0    0  502  501   0.0000000000E+00   0.0000000000E+00   1.3453755417E+01   1.3453755417E+01   0.0000000000E+00     0.000   1.
   21   -1    0    0  501  502   0.0000000000E+00   0.0000000000E+00  -2.9034644075E+02   2.9034644075E+02   0.0000000000E+00     0.000   1.
   25    2    1    2    0    0   0.0000000000E+00   0.0000000000E+00  -2.7689268533E+02   3.0380019617E+02   1.2500000000E+02  8.863E-08  -1.
3000002    2    3    0    0    0   5.4224023769E+01   1.4033903149E+00  -2.0988674490E+02   2.1701304095E+02   1.0000000000E+01  5.707E-10  -1.
3000002    2    3    0    0    0  -5.4224023769E+01  -1.4033903149E+00  -6.7005940429E+01   8.6787155218E+01   1.0000000000E+01  1.289E-09  -1.
3000001    1    4    0    0    0   5.3824795785E+01   5.2676184939E-01  -2.0825987803E+02   2.1510593417E+02   1.0000000000E+00     0.000  -1.
3000022   2   4   0   0   0   3.9922798356E-01   8.7662846547E-01   -1.6268668691E+00   1.9071067770E+00   2.5000000000E-01   1.302145E+01   0.
3000001    1    5    0    0    0  -1.9920502309E+01   3.4033139580E+00  -2.9034292797E+01   3.5389251424E+01   1.0000000000E+00     0.000   1.
3000022   2   5   0   0   0   -3.4303521460E+01   -4.8067042729E+00   -3.7971647632E+01   5.1397903794E+01   2.5000000000E-01   2.304697E+00   0.
13    1    7    0    0    0   8.6009001875E-02   3.0992740581E-01  -5.1637761382E-01   6.1735191369E-01   1.0500000000E-01     0.000   1.
-13    1    7    0    0    0   3.1321898168E-01   5.6670105967E-01  -1.1104892553E+00   1.2897548634E+00   1.0500000000E-01     0.000  -1.
13    1    9    0    0    0  -1.5653525811E+01  -2.2610189870E+00  -1.7337870151E+01   2.3468230516E+01   1.0500000000E-01     0.000  -1.
-13    1    9    0    0    0  -1.8649995649E+01  -2.5456852859E+00  -2.0633777481E+01   2.7929673278E+01   1.0500000000E-01     0.000   1.
</event>
<event>
 13   1  9.2978750E-05  1.2500000E+02  7.5467720E-03  1.2380620E-01
   21   -1    0    0  502  501   0.0000000000E+00   0.0000000000E+00   5.3117920341E+01   5.3117920341E+01   0.0000000000E+00     0.000   1.
   21   -1    0    0  501  502   0.0000000000E+00   0.0000000000E+00  -7.3539211907E+01   7.3539211907E+01   0.0000000000E+00     0.000   1.
   25    2    1    2    0    0   0.0000000000E+00   0.0000000000E+00  -2.0421291567E+01   1.2665713225E+02   1.2500000000E+02  6.721E-09  -1.
3000002    2    3    0    0    0  -5.0689282350E+01   3.3815102468E+01  -2.0002374257E+01   6.4907314503E+01   1.0000000000E+01  1.254E-09   1.
3000002    2    3    0    0    0   5.0689282350E+01  -3.3815102468E+01  -4.1891731042E-01   6.1749817747E+01   1.0000000000E+01  5.311E-10   1.
3000001    1    4    0    0    0  -4.0447881841E+01   2.5615214474E+01  -1.1426470497E+01   4.9231439000E+01   1.0000000000E+00     0.000   1.
3000022   2   4   0   0   0   -1.0241400509E+01   8.1998879937E+00   -8.5759037592E+00   1.5675875503E+01   2.5000000000E-01   6.254648E+00   0.
3000001    1    5    0    0    0   4.1252046777E+01  -3.1273546277E+01  -2.1515431413E+00   5.1820798893E+01   1.0000000000E+00     0.000  -1.
3000022   2   5   0   0   0   9.4372355729E+00   -2.5415561911E+00   1.7326258309E+00   9.9290188539E+00   2.5000000000E-01   1.073480E+00   0.
13    1    7    0    0    0  -4.6044833506E+00   3.6030418009E+00  -3.8367033398E+00   6.9938898092E+00   1.0500000000E-01     0.000   1.
-13    1    7    0    0    0  -5.6369171586E+00   4.5968461928E+00  -4.7392004194E+00   8.6819856938E+00   1.0500000000E-01     0.000  -1.
13    1    9    0    0    0   4.8448456546E+00  -1.2393146966E+00   8.6165196129E-01   5.0756181334E+00   1.0500000000E-01     0.000   1.
-13    1    9    0    0    0   4.5923899184E+00  -1.3022414945E+00   8.7097386962E-01   4.8534007205E+00   1.0500000000E-01     0.000  -1.
</event>
<event>
 13   1  9.2978750E-05  1.2500000E+02  7.5467720E-03  1.2380620E-01
   21   -1    0    0  502  501   0.0000000000E+00   0.0000000000E+00   1.4118241492E+01   1.4118241492E+01   0.0000000000E+00     0.000  -1.
   21   -1    0    0  501  502   0.0000000000E+00   0.0000000000E+00  -2.7668105848E+02   2.7668105848E+02   0.0000000000E+00     0.000  -1.
   25    2    1    2    0    0   0.0000000000E+00   0.0000000000E+00  -2.6256281699E+02   2.9079929998E+02   1.2500000000E+02  1.989E-08  -1.
3000002    2    3    0    0    0   2.8728683366E+01   2.0644407310E+01  -1.3695548556E+01   3.9231324874E+01   1.0000000000E+01  1.156E-09  -1.
3000002    2    3    0    0    0  -2.8728683366E+01  -2.0644407310E+01  -2.4886726843E+02   2.5156797511E+02   1.0000000000E+01  8.687E-11  -1.
3000001    1    4    0    0    0   1.7192964408E+01   1.3998329728E+01  -1.3374297509E+01   2.5911833091E+01   1.0000000000E+00     0.000   1.
3000022   2   4   0   0   0   1.1535718958E+01   6.6460775822E+00   -3.2125104671E-01   1.3319491782E+01   2.5000000000E-01   1.073677E+00   0.
3000001    1    5    0    0    0  -2.5762153995E+01  -1.4318021763E+01  -2.1227430621E+02   2.1431303134E+02   1.0000000000E+00     0.000  -1.
3000022   2   5   0   0   0   -2.9665293705E+00   -6.3263855466E+00   -3.6592962221E+01   3.7254943762E+01   2.5000000000E-01   1.079371E+01   0.
13    1    7    0    0    0   3.1486134855E+00   1.8163472133E+00  -1.2486165801E-01   3.6386123060E+00   1.0500000000E-01     0.000  -1.
-13    1    7    0    0    0   8.3871054726E+00   4.8297303689E+00  -1.9638938871E-01   9.6808794764E+00   1.0500000000E-01     0.000   1.
13    1    9    0    0    0  -1.7544818844E+00  -3.6023159390E+00  -2.1125854999E+01   2.1502736134E+01   1.0500000000E-01     0.000   1.
-13    1    9    0    0    0  -1.2120474862E+00  -2.7240696077E+00  -1.5467107222E+01   1.5752207628E+01   1.0500000000E-01     0.000  -1.
</event>
<event>
 13   1  9.2978750E-05  1.2500000E+02  7.5467720E-03  1.2380620E-01
   21   -1    0    0  502  501   0.0000000000E+00   0.0000000000E+00   2.2308022566E+01   2.2308022566E+01   0.0000000000E+00     0.000  -1.
   21   -1    0    0  501  502   0.0000000000E+00   0.0000000000E+00  -1.7510516624E+02   1.7510516624E+02   0.0000000000E+00     0.000  -1.
   25    2    1    2    0    0   0.0000000000E+00   0.0000000000E+00  -1.5279714368E+02   1.9741318881E+02   1.2500000000E+02  5.933E-10  -1.
3000002    2    3    0    0    0   2.4011121932E+01  -4.1511542036E+01  -1.3769735559E+02   1.4615164670E+02   1.0000000000E+01  1.747E-09   1.
3000002    2    3    0    0    0  -2.4011121932E+01   4.1511542036E+01  -1.5099788093E+01   5.1261542106E+01   1.0000000000E+01  4.108E-10   1.
3000001    1    4    0    0    0   1.7384616599E+01  -3.6982914721E+01  -1.1184669457E+02   1.1908250906E+02   1.0000000000E+00     0.000   1.
3000022   2   4   0   0   0   6.6265053324E+00   -4.5286273146E+00   -2.5850661012E+01   2.7069137649E+01   2.5000000000E-01   7.020681E-01   0.
3000001    1    5    0    0    0  -4.7656050819E+00   1.7038753900E+01  -7.2935704919E+00   1.9163149448E+01   1.0000000000E+00     0.000   1.
3000022   2   5   0   0   0   -1.9245516850E+01   2.4472788136E+01   -7.8062176008E+00   3.2098392658E+01   2.5000000000E-01   1.304061E+01   0.
13    1    7    0    0    0   3.3372743423E+00  -2.2339680752E+00  -1.2746078294E+01   1.3364189099E+01   1.0500000000E-01     0.000   1.
-13    1    7    0    0    0   3.2892309901E+00  -2.2946592394E+00  -1.3104582718E+01   1.3704948550E+01   1.0500000000E-01     0.000  -1.
13    1    9    0    0    0  -1.0839618933E+01   1.3794421880E+01  -4.3311101124E+00   1.8070776227E+01   1.0500000000E-01     0.000  -1.
-13    1    9    0    0    0  -8.4058979169E+00   1.0678366256E+01  -3.4751074885E+00   1.4027616431E+01   1.0500000000E-01     0.000   1.
</event>
<event>
 13   1  9.2978750E-05  1.2500000E+02  7.5467720E-03  1.2380620E-01
   21   -1    0    0  502  501   0.0000000000E+00   0.0000000000E+00   4.3402207702E+01   4.3402207702E+01   0.0000000000E+00     0.000   1.
   21   -1    0    0  501  502   0.0000000000E+00   0.0000000000E+00  -9.0001182124E+01   9.0001182124E+01   0.0000000000E+00     0.000   1.
   25    2    1    2    0    0   0.0000000000E+00   0.0000000000E+00  -4.6598974422E+01   1.3340338983E+02   1.2500000000E+02  2.406E-08  -1.
3000002    2    3    0    0    0  -1.3037269711E+01  -4.8479630001E+01   1.4972251529E+01   5.3333040813E+01   1.0000000000E+01  4.713E-10  -1.
3000002    2    3    0    0    0   1.3037269711E+01   4.8479630001E+01  -6.1571225951E+01   8.0070349017E+01   1.0000000000E+01  1.870E-09  -1.
3000001    1    4    0    0    0  -1.7632063125E+00  -1.2546698084E+01  -2.5068412633E-01   1.2711859496E+01   1.0000000000E+00     0.000  -1.
3000022   2   4   0   0   0   -1.1274063398E+01   -3.5932931917E+01   1.5222935655E+01   4.0621181317E+01   2.5000000000E-01   1.454723E+00   0.
3000001    1    5    0    0    0   4.8859785401E-01   1.0922614653E+01  -1.8889298268E+01   2.1848291187E+01   1.0000000000E+00     0.000   1.
3000022   2   5   0   0   0   1.2548671857E+01   3.7557015348E+01   -4.2681927682E+01   5.8222057830E+01   2.5000000000E-01   9.516453E+00   0.
13    1    7    0    0    0  -4.3165846958E+00  -1.3805161190E+01   5.7824648120E+00   1.5577653971E+01   1.0500000000E-01     0.000   1.
-13    1    7    0    0    0  -6.9574787026E+00  -2.2127770727E+01   9.4404708427E+00   2.5043527347E+01   1.0500000000E-01     0.000  -1.
13    1    9    0    0    0   5.3178603691E+00   1.5799615121E+01  -1.8047513200E+01   2.4568907883E+01   1.0500000000E-01     0.000  -1.
-13    1    9    0    0    0   7.2308114878E+00   2.1757400228E+01  -2.4634414483E+01   3.3653149947E+01   1.0500000000E-01     0.000   1.
</event>
<event>
 13   1  9.2978750E-05  1.2500000E+02  7.5467720E-03  1.2380620E-01
   21   -1    0    0  502  501   0.0000000000E+00   0.0000000000E+00   1.0105542712E+02   1.0105542712E+02   0.0000000000E+00     0.000  -1.
   21   -1    0    0  501  502   0.0000000000E+00   0.0000000000E+00  -3.8654529609E+01   3.8654529609E+01   0.0000000000E+00     0.000  -1.
   25    2    1    2    0    0   0.0000000000E+00   0.0000000000E+00   6.2400897516E+01   1.3970995673E+02   1.2500000000E+02  6.870E-09  -1.
3000002    2    3    0    0    0  -6.1198129358E+01   7.8016634913E+00   3.0735556477E+01   6.9647336073E+01   1.0000000000E+01  9.540E-10   1.
3000002    2    3    0    0    0   6.1198129358E+01  -7.8016634913E+00   3.1665341039E+01   7.0062620657E+01   1.0000000000E+01  1.697E-09   1.
3000001    1    4    0    0    0  -3.6149696990E+01   6.8013596469E+00   1.3372513761E+01   3.9152052434E+01   1.0000000000E+00     0.000   1.
3000022   2   4   0   0   0   -2.5048432368E+01   1.0003038444E+00   1.7363042716E+01   3.0495283640E+01   2.5000000000E-01   4.876353E-01   0.
3000001    1    5    0    0    0   2.1799628284E+01   1.0847511359E+00   8.1066507330E+00   2.3304897864E+01   1.0000000000E+00     0.000  -1.
3000022   2   5   0   0   0   3.9398501074E+01   -8.8864146272E+00   2.3558690306E+01   4.6757722793E+01   2.5000000000E-01   8.885548E+00   0.
13    1    7    0    0    0  -8.3448520530E+00   2.8205875181E-01   5.7644190645E+00   1.0146707105E+01   1.0500000000E-01     0.000  -1.
-13    1    7    0    0    0  -1.6703580316E+01   7.1824509260E-01   1.1598623651E+01   2.0348576534E+01   1.0500000000E-01     0.000   1.
13    1    9    0    0    0   1.9511229241E+01  -4.3575985276E+00   1.1599871474E+01   2.3113735627E+01   1.0500000000E-01     0.000  -1.
-13    1    9    0    0    0   1.9887271833E+01  -4.5288160996E+00   1.1958818832E+01   2.3643987165E+01   1.0500000000E-01     0.000   1.
</event>
<event>
 13   1  9.2978750E-05  1.2500000E+02  7.5467720E-03  1.2380620E-01
   21   -1    0    0  502  501   0.0000000000E+00   0.0000000000E+00   6.2563429712E+01   6.2563429712E+01   0.0000000000E+00     0.000   1.
   21   -1    0    0  501  502   0.0000000000E+00   0.0000000000E+00  -6.2436634596E+01   6.2436634596E+01   0.0000000000E+00     0.000   1.
   25    2    1    2    0    0   0.0000000000E+00   0.0000000000E+00   1.2679511678E-01   1.2500006431E+02   1.2500000000E+02  3.561E-08  -1.
3000002    2    3    0    0    0   2.2750324602E+01  -4.1812443914E+01  -3.9184453969E+01   6.2460220688E+01   1.0000000000E+01  8.127E-10  -1.
3000002    2    3    0    0    0  -2.2750324602E+01   4.1812443914E+01   3.9311249086E+01   6.2539843622E+01   1.0000000000E+01  1.144E-10  -1.
3000001    1    4    0    0    0   1.1911676291E+01  -1.7413962358E+01  -2.3054365250E+01   3.1267201252E+01   1.0000000000E+00     0.000  -1.
3000022   2   4   0   0   0   1.0838648311E+01   -2.4398481556E+01   -1.6130088719E+01   3.1193019436E+01   2.5000000000E-01   1.400793E+01   0.
3000001    1    5    0    0    0  -1.2496904609E+01   1.3275713969E+01   1.3327082110E+01   2.2605935587E+01   1.0000000000E+00     0.000   1.
3000022   2   5   0   0   0   -1.0253419993E+01   2.8536729945E+01   2.5984166975E+01   3.9933908035E+01   2.5000000000E-01   5.123682E+00   0.
13    1    7    0    0    0   5.3473043188E+00  -1.1925826501E+01  -7.8374114151E+00   1.5239916139E+01   1.0500000000E-01     0.000  -1.
-13    1    7    0    0    0   5.4913439922E+00  -1.2472655055E+01  -8.2926773040E+00   1.5953103297E+01   1.0500000000E-01     0.000   1.
13    1    9    0    0    0  -3.4110035195E+00   9.5780441218E+00   8.7728877565E+00   1.3429387879E+01   1.0500000000E-01     0.000   1.
-13    1    9    0    0    0  -6.8424164730E+00   1.8958685823E+01   1.7211279219E+01   2.6504520156E+01   1.0500000000E-01     0.000  -1.
</event>
<event>
 13   1  9.2978750E-05  1.2500000E+02  7.5467720E-03  1.2380620E-01
   21   -1    0    0  502  501   0.0000000000E+00   0.0000000000E+00   1.3054246995E+01   1.3054246995E+01   0.0000000000E+00     0.000   1.
   21   -1    0    0  501  502   0.0000000000E+00   0.0000000000E+00  -2.9923211975E+02   2.9923211975E+02   0.0000000000E+00     0.000   1.
   25    2    1    2    0    0   0.0000000000E+00   0.0000000000E+00  -2.8617787276E+02   3.1228636675E+02   1.2500000000E+02  3.501E-09  -1.
3000002    2    3    0    0    0  -3.0392361376E+00  -4.4768156166E+00  -2.9662657135E+02   2.9684440649E+02   1.0000000000E+01  8.343E-10   1.
3000002    2    3    0    0    0   3.0392361376E+00   4.4768156166E+00   1.0448698591E+01   1.5441960258E+01   1.0000000000E+01  8.259E-11   1.
3000001    1    4    0    0    0  -3.8595711219E+00   1.6200573119E+00  -6.8681073049E+01   6.8815773410E+01   1.0000000000E+00     0.000   1.
3000022   2   4   0   0   0   8.2033498433E-01   -6.0968729285E+00   -2.2794549830E+02   2.2802863308E+02   2.5000000000E-01   2.857266E+00   0.
3000001    1    5    0    0    0  -2.3856792027E+00   4.7391248101E+00   7.5460065450E+00   9.2786305024E+00   1.0000000000E+00     0.000  -1.
3000022   2   5   0   0   0   5.4249153403E+00   -2.6230919340E-01   2.9026920457E+00   6.1633297554E+00   2.5000000000E-01   2.991485E+00   0.
13    1    7    0    0    0   4.0485900130E-01  -3.4543377430E+00  -1.2777539375E+02   1.2782276258E+02   1.0500000000E-01     0.000  -1.
-13    1    7    0    0    0   4.1547598303E-01  -2.6425351855E+00  -1.0017010455E+02   1.0020587051E+02   1.0500000000E-01     0.000   1.
13    1    9    0    0    0   3.7217315448E+00  -1.3039890120E-01   1.9902805609E+00   4.2238053075E+00   1.0500000000E-01     0.000   1.
-13    1    9    0    0    0   1.7031837955E+00  -1.3191029221E-01   9.1241148484E-01   1.9395244479E+00   1.0500000000E-01     0.000  -1.
</event>
<event>
 13   1  9.2978750E-05  1.2500000E+02  7.5467720E-03  1.2380620E-01
   21   -1    0    0  502  501   0.0000000000E+00   0.0000000000E+00   6.2117566996E+01   6.2117566996E+01   0.0000000000E+00     0.000  -1.
   21   -1    0    0  501  502   0.0000000000E+00   0.0000000000E+00  -6.2884787491E+01   6.2884787491E+01   0.0000000000E+00     0.000  -1.
   25    2    1    2    0    0   0.0000000000E+00   0.0000000000E+00  -7.6722049474E-01   1.2500235449E+02   1.2500000000E+02  5.518E-08  -1.
3000002    2    3    0    0    0  -4.9548249829E+01   2.8127918310E+01  -2.4049244584E+01   6.2646428587E+01   1.0000000000E+01  2.612E-10  -1.
3000002    2    3    0    0    0   4.9548249829E+01  -2.8127918310E+01   2.3282024090E+01   6.2355925903E+01   1.0000000000E+01  7.704E-10  -1.
3000001    1    4    0    0    0  -1.1955953453E+01   2.3187554986E+00  -5.8669493777E+00   1.3555166728E+01   1.0000000000E+00     0.000  -1.
3000022   2   4   0   0   0   -3.7592296376E+01   2.5809162812E+01   -1.8182295207E+01   4.9091261858E+01   2.5000000000E-01   7.503995E+00   0.
3000001    1    5    0    0    0   4.5354408389E+01  -2.5204157721E+01   2.4017405798E+01   5.7184855583E+01   1.0000000000E+00     0.000  -1.
3000022   2   5   0   0   0   4.1938414395E+00   -2.9237605894E+00   -7.3538170837E-01   5.1710703206E+00   2.5000000000E-01   1.157488E+00   0.
13    1    7    0    0    0  -1.7158077198E+01   1.1716756646E+01  -8.3298164431E+00   2.2384790962E+01   1.0500000000E-01     0.000  -1.
-13    1    7    0    0    0  -2.0434219178E+01   1.4092406166E+01  -9.8524787637E+00   2.6706470897E+01   1.0500000000E-01     0.000   1.
13    1    9    0    0    0   2.4617883779E+00  -1.7830625748E+00  -4.6957318190E-01   3.0775376743E+00   1.0500000000E-01     0.000   1.
-13    1    9    0    0    0   1.7320530616E+00  -1.1406980146E+00  -2.6580852647E-01   2.0935326464E+00   1.0500000000E-01     0.000  -1.
</event>
<event>
 13   1  9.2978750E-05  1.2500000E+02  7.5467720E-03  1.2380620E-01
   21   -1    0    0  502  501   0.0000000000E+00   0.0000000000E+00   7.9480964556E+00   7.9480964556E+00   0.0000000000E+00     0.000  -1.
   21   -1    0    0  501  502   0.0000000000E+00   0.0000000000E+00  -4.9146987858E+02   4.9146987858E+02   0.0000000000E+00     0.000  -1.
   25    2    1    2    0    0   0.0000000000E+00   0.0000000000E+00  -4.8352178213E+02   4.9941797504E+02   1.2500000000E+02  1.461E-08  -1.
3000002    2    3    0    0    0  -5.3034228275E+01  -1.5475677720E+00  -1.1597253956E+02   1.2792440841E+02   1.0000000000E+01  5.456E-10  -1.
3000002    2    3    0    0    0   5.3034228275E+01   1.5475677720E+00  -3.6754924257E+02   3.7149356663E+02   1.0000000000E+01  2.324E-09  -1.
3000001    1    4    0    0    0  -3.2056243406E+01  -1.7989607960E+00  -5.8452668633E+01   6.6697477250E+01   1.0000000000E+00     0.000  -1.
3000022   2   4   0   0   0   -2.0977984869E+01   2.5139302392E-01   -5.7519870927E+01   6.1226931158E+01   2.5000000000E-01   7.999461E+00   0.
3000001    1    5    0    0    0   1.0729394801E+01  -7.7043190684E-01  -5.1819629426E+01   5.2933802735E+01   1.0000000000E+00     0.000  -1.
3000022   2   5   0   0   0   4.2304833473E+01   2.3179996789E+00   -3.1572961314E+02   3.1855976390E+02   2.5000000000E-01   6.650507E-01   0.
13    1    7    0    0    0  -9.3624335811E+00   1.7706373319E-01  -2.5631001332E+01   2.7288198335E+01   1.0500000000E-01     0.000   1.
-13    1    7    0    0    0  -1.1615551288E+01   7.4329290730E-02  -3.1888869595E+01   3.3938732823E+01   1.0500000000E-01     0.000  -1.
13    1    9    0    0    0   2.1747524038E+01   1.1356178887E+00  -1.6199571630E+02   1.6345295211E+02   1.0500000000E-01     0.000   1.
-13    1    9    0    0    0   2.0557309435E+01   1.1823817902E+00  -1.5373389685E+02   1.5510681179E+02   1.0500000000E-01     0.000  -1.
</event>
<event>
 13   1  9.2978750E-05  1.2500000E+02  7.5467720E-03  1.2380620E-01
   21   -1    0    0  502  501   0.0000000000E+00   0.0000000000E+00   9.8936691342E+00   9.8936691342E+00   0.0000000000E+00     0.000  -1.
   21   -1    0    0  501  502   0.0000000000E+00   0.0000000000E+00  -3.9482318915E+02   3.9482318915E+02   0.0000000000E+00     0.000  -1.
   25    2    1    2    0    0   0.0000000000E+00   0.0000000000E+00  -3.8492952002E+02   4.0471685829E+02   1.2500000000E+02  4.852E-08  -1.
3000002    2    3    0    0    0   2.9822506996E+01   2.2845987356E+01  -3.5091306510E+02   3.5305991038E+02   1.0000000000E+01  9.629E-11  -1.
3000002    2    3    0    0    0  -2.9822506996E+01  -2.2845987356E+01  -3.4016454922E+01   5.1656947908E+01   1.0000000000E+01  4.142E-10  -1.
3000001    1    4    0    0    0   9.9263942728E+00   1.3055655415E+01  -1.7019990451E+02   1.7099120135E+02   1.0000000000E+00     0.000   1.
3000022   2   4   0   0   0   1.9896112723E+01   9.7903319415E+00   -1.8071316059E+02   1.8206870904E+02   2.5000000000E-01   5.636628E+00   0.
3000001    1    5    0    0    0  -3.2797879924E-01   4.9117689889E-01  -4.5025912195E-01   1.2456155569E+00   1.0000000000E+00     0.000   1.
3000022   2   5   0   0   0   -2.9494528197E+01   -2.3337164255E+01   -3.3566195800E+01   5.0411332352E+01   2.5000000000E-01   1.985039E+00   0.
13    1    7    0    0    0   1.4356199473E+01   7.0581225975E+00  -1.3004921667E+02   1.3102949035E+02   1.0500000000E-01     0.000   1.
-13    1    7    0    0    0   5.5399132501E+00   2.7322093440E+00  -5.0663943911E+01   5.1039218688E+01   1.0500000000E-01     0.000  -1.
13    1    9    0    0    0  -1.1804025174E+01  -9.3879068819E+00  -1.3392488495E+01   2.0170215145E+01   1.0500000000E-01     0.000   1.
-13    1    9    0    0    0  -1.7690503023E+01  -1.3949257373E+01  -2.0173707305E+01   3.0241117206E+01   1.0500000000E-01     0.000  -1.
</event>
<event>
 13   1  9.2978750E-05  1.2500000E+02  7.5467720E-03  1.2380620E-01
   21   -1    0    0  502  501   0.0000000000E+00   0.0000000000E+00   1.4537506173E+01   1.4537506173E+01   0.0000000000E+00     0.000   1.
   21   -1    0    0  501  502   0.0000000000E+00   0.0000000000E+00  -2.6870151961E+02   2.6870151961E+02   0.0000000000E+00     0.000   1.
   25    2    1    2    0    0   0.0000000000E+00   0.0000000000E+00  -2.5416401344E+02   2.8323902579E+02   1.2500000000E+02  8.432E-08  -1.
3000002    2    3    0    0    0  -1.7341034194E+01  -5.8448458233E+00   6.4218852478E+00   2.1820043532E+01   1.0000000000E+01  9.476E-11   1.
3000002    2    3    0    0    0   1.7341034194E+01   5.8448458233E+00  -2.6058589869E+02   2.6141898226E+02   1.0000000000E+01  1.308E-09   1.
3000001    1    4    0    0    0  -6.7308593708E+00   3.7276609905E-01  -1.7706209979E+00   7.0412016839E+00   1.0000000000E+00     0.000   1.
3000022   2   4   0   0   0   -1.0610174823E+01   -6.2176119223E+00   8.1925062458E+00   1.4778841849E+01   2.5000000000E-01   1.228359E+01   0.
3000001    1    5    0    0    0   1.3080894334E+01   8.4647823736E+00  -2.1259810062E+02   2.1317062350E+02   1.0000000000E+00     0.000  -1.
3000022   2   5   0   0   0   4.2601398604E+00   -2.6199365503E+00   -4.7987798066E+01   4.8248358754E+01   2.5000000000E-01   2.786262E-01   0.
13    1    7    0    0    0  -7.7521344716E+00  -4.5699528848E+00   6.0257560721E+00   1.0830550285E+01   1.0500000000E-01     0.000   1.
-13    1    7    0    0    0  -2.8580403517E+00  -1.6476590375E+00   2.1667501736E+00   3.9482915635E+00   1.0500000000E-01     0.000  -1.
13    1    9    0    0    0   9.8984805505E-01  -5.9913273783E-01  -1.1189358036E+01   1.1249511877E+01   1.0500000000E-01     0.000  -1.
-13    1    9    0    0    0   3.2702918053E+00  -2.0208038124E+00  -3.6798440030E+01   3.6998846876E+01   1.0500000000E-01     0.000   1.
</event>
<event>
 13   1  9.2978750E-05  1.2500000E+02  7.5467720E-03  1.2380620E-01
   21   -1    0    0  502  501   0.0000000000E+00   0.0000000000E+00   7.6146455456E+01   7.6146455456E+01   0.0000000000E+00     0.000   1.
   21   -1    0    0  501  502   0.0000000000E+00   0.0000000000E+00  -5.1299170481E+01   5.1299170481E+01   0.0000000000E+00     0.000   1.
   25    2    1    2    0    0   0.0000000000E+00   0.0000000000E+00   2.4847284975E+01   1.2744562594E+02   1.2500000000E+02  3.664E-08  -1.
3000002    2    3    0    0    0  -2.1286316270E+01   3.9787765678E+01   5.5319063299E+01   7.2085867702E+01   1.0000000000E+01  1.395E-09  -1.
3000002    2    3    0    0    0   2.1286316270E+01  -3.9787765678E+01  -3.0471778324E+01   5.5359758238E+01   1.0000000000E+01  4.635E-10  -1.
3000001    1    4    0    0    0  -5.8699417251E+00   1.8090124704E+01   2.8679990342E+01   3.4427469754E+01   1.0000000000E+00     0.000   1.
3000022   2   4   0   0   0   -1.5416374545E+01   2.1697640974E+01   2.6639072957E+01   3.7658397948E+01   2.5000000000E-01   4.656456E-01   0.
3000001    1    5    0    0    0   1.1857260422E+01  -2.6510181943E+01  -1.4218788812E+01   3.2350553730E+01   1.0000000000E+00     0.000   1.
3000022   2   5   0   0   0   9.4290558478E+00   -1.3277583735E+01   -1.6252989512E+01   2.3009204508E+01   2.5000000000E-01   1.138405E+00   0.
13    1    7    0    0    0  -4.6933577246E+00   6.5400426276E+00   8.0948540393E+00   1.1416542875E+01   1.0500000000E-01     0.000  -1.
-13    1    7    0    0    0  -1.0723016820E+01   1.5157598346E+01   1.8544218918E+01   2.6241855073E+01   1.0500000000E-01     0.000   1.
13    1    9    0    0    0   4.5530121725E+00  -6.3990899874E+00  -7.9332616584E+00   1.1163598795E+01   1.0500000000E-01     0.000   1.
-13    1    9    0    0    0   4.8760436753E+00  -6.8784937473E+00  -8.3197278538E+00   1.1845605713E+01   1.0500000000E-01     0.000  -1.
</event>
<event>
 13   1  9.2978750E-05  1.2500000E+02  7.5467720E-03  1.2380620E-01
   21   -1    0    0  502  501   0.0000000000E+00   0.0000000000E+00   7.7972963853E+01   7.7972963853E+01   0.0000000000E+00     0.000   1.
   21   -1    0    0  501  502   0.0000000000E+00   0.0000000000E+00  -5.0097492861E+01   5.0097492861E+01   0.0000000000E+00     0.000   1.
   25    2    1    2    0    0   0.0000000000E+00   0.0000000000E+00   2.7875470992E+01   1.2807045671E+02   1.2500000000E+02  4.125E-08  -1.
3000002    2    3    0    0    0   4.7962937779E+01  -3.4967731213E+01  -3.3000531388E+00   6.0283297665E+01   1.0000000000E+01  3.842E-10   1.
3000002    2    3    0    0    0  -4.7962937779E+01   3.4967731213E+01   3.1175524131E+01   6.7787159045E+01   1.0000000000E+01  6.047E-10   1.
3000001    1    4    0    0    0   1.1449572625E+01  -5.0549013743E+00  -3.6645013410E+00   1.3079499657E+01   1.0000000000E+00     0.000  -1.
3000022   2   4   0   0   0   3.6513365154E+01   -2.9912829839E+01   3.6444820225E-01   4.7203798008E+01   2.5000000000E-01   1.811194E+00   0.
3000001    1    5    0    0    0  -1.2220354068E+01   7.9459436504E+00   3.1816732334E+00   1.4953197605E+01   1.0000000000E+00     0.000  -1.
3000022   2   5   0   0   0   -3.5742583711E+01   2.7021787563E+01   2.7993850897E+01   5.2833961441E+01   2.5000000000E-01   7.178426E-01   0.
13    1    7    0    0    0   2.2563284875E+01  -1.8563115678E+01   2.2139172539E-01   2.9219019958E+01   1.0500000000E-01     0.000  -1.
-13    1    7    0    0    0   1.3950080279E+01  -1.1349714161E+01   1.4305647686E-01   1.7984778050E+01   1.0500000000E-01     0.000   1.
13    1    9    0    0    0  -1.2048543958E+01   9.0988412342E+00   9.3696606614E+00   1.7769577632E+01   1.0500000000E-01     0.000   1.
-13    1    9    0    0    0  -2.3694039753E+01   1.7922946329E+01   1.8624190236E+01   3.5064383809E+01   1.0500000000E-01     0.000  -1.
</event>
<event>
 13   1  9.2978750E-05  1.2500000E+02  7.5467720E-03  1.2380620E-01
   21   -1    0    0  502  501   0.0000000000E+00   0.0000000000E+00   5.3344905839E+02   5.3344905839E+02   0.0000000000E+00     0.000  -1.
   21   -1    0    0  501  502   0.0000000000E+00   0.0000000000E+00  -7.3226298529E+00   7.3226298529E+00   0.0000000000E+00     0.000  -1.
   25    2    1    2    0    0   0.0000000000E+00   0.0000000000E+00   5.2612642854E+02   5.4077168824E+02   1.2500000000E+02  8.050E-09  -1.
3000002    2    3    0    0    0  -5.5025503085E+01  -1.6169287487E+01   1.6469644036E+02   1.7468305388E+02   1.0000000000E+01  7.807E-10   1.
3000002    2    3    0    0    0   5.5025503085E+01   1.6169287487E+01   3.6142998818E+02   3.6608863436E+02   1.0000000000E+01  2.337E-10   1.
3000001    1    4    0    0    0  -3.4257933971E+01  -9.8688190731E+00   8.7384926894E+01   9.4382864325E+01   1.0000000000E+00     0.000   1.
3000022   2   4   0   0   0   -2.0767569113E+01   -6.3004684141E+00   7.7311513464E+01   8.0300189559E+01   2.5000000000E-01   7.015591E+00   0.
3000001    1    5    0    0    0   9.3972788573E+00   6.7809806374E+00   7.1317632819E+01   7.2259914885E+01   1.0000000000E+00     0.000  -1.
3000022   2   5   0   0   0   4.5628224227E+01   9.3883068498E+00   2.9011235536E+02   2.9382871947E+02   2.5000000000E-01   1.012775E+00   0.
13    1    7    0    0    0  -5.5409266753E+00  -1.6601746771E+00   2.0503680627E+01   2.1304224760E+01   1.0500000000E-01     0.000  -1.
-13    1    7    0    0    0  -1.5226642438E+01  -4.6402937370E+00   5.6807832837E+01   5.8995964798E+01   1.0500000000E-01     0.000   1.
13    1    9    0    0    0   2.1460952057E+01   4.3763925495E+00   1.3675230994E+02   1.3849523664E+02   1.0500000000E-01     0.000   1.
-13    1    9    0    0    0   2.4167272170E+01   5.0119143003E+00   1.5336004543E+02   1.5533348283E+02   1.0500000000E-01     0.000  -1.
</event>
<event>
 13   1  9.2978750E-05  1.2500000E+02  7.5467720E-03  1.2380620E-01
   21   -1    0    0  502  501   0.0000000000E+00   0.0000000000E+00   5.7730099787E+01   5.7730099787E+01   0.0000000000E+00     0.000  -1.
   21   -1    0    0  501  502   0.0000000000E+00   0.0000000000E+00  -6.7664009146E+01   6.7664009146E+01   0.0000000000E+00     0.000  -1.
   25    2    1    2    0    0   0.0000000000E+00   0.0000000000E+00  -9.9339093582E+00   1.2539410893E+02   1.2500000000E+02  6.790E-08  -1.
3000002    2    3    0    0    0   1.3811143510E+00  -1.3686581529E-01   5.6906712545E+01   5.7795329758E+01   1.0000000000E+01  2.767E-11  -1.
3000002    2    3    0    0    0  -1.3811143510E+00   1.3686581529E-01  -6.6840621904E+01   6.7598779172E+01   1.0000000000E+01  5.616E-10  -1.
3000001    1    4    0    0    0   1.9898736157E+00   4.7053954326E+00   3.0087901254E+01   3.0534933192E+01   1.0000000000E+00     0.000   1.
3000022   2   4   0   0   0   -6.0875926470E-01   -4.8422612479E+00   2.6818811291E+01   2.7260396566E+01   2.5000000000E-01   5.175174E-01   0.
3000001    1    5    0    0    0  -5.5643442052E+00   6.3000635220E-01  -3.1773127680E+01   3.2278328287E+01   1.0000000000E+00     0.000  -1.
3000022   2   5   0   0   0   4.1832298542E+00   -4.9314053692E-01   -3.5067494223E+01   3.5320450885E+01   2.5000000000E-01   2.710966E+00   0.
13    1    7    0    0    0  -2.9906708510E-01  -2.0063923186E+00   1.1399675734E+01   1.1579234996E+01   1.0500000000E-01     0.000  -1.
-13    1    7    0    0    0  -3.0969217959E-01  -2.8358689293E+00   1.5419135557E+01   1.5681161570E+01   1.0500000000E-01     0.000   1.
13    1    9    0    0    0   1.2516726939E+00  -1.9048246762E-01  -1.0704305867E+01   1.0779432137E+01   1.0500000000E-01     0.000  -1.
-13    1    9    0    0    0   2.9315571603E+00  -3.0265806930E-01  -2.4363188356E+01   2.4541018747E+01   1.0500000000E-01     0.000   1.
</event>
<event>
 13   1  9.2978750E-05  1.2500000E+02  7.5467720E-03  1.2380620E-01
   21   -1    0    0  502  501   0.0000000000E+00   0.0000000000E+00   1.7148395783E+02   1.7148395783E+02   0.0000000000E+00     0.000  -1.
   21   -1    0    0  501  502   0.0000000000E+00   0.0000000000E+00  -2.2779098695E+01   2.2779098695E+01   0.0000000000E+00     0.000  -1.
   25    2    1    2    0    0   0.0000000000E+00   0.0000000000E+00   1.4870485913E+02   1.9426305652E+02   1.2500000000E+02  3.714E-08  -1.
3000002    2    3    0    0    0  -2.7002246663E+01  -5.0707686253E+01   3.9398577495E+01   7.0374986171E+01   1.0000000000E+01  4.485E-10   1.
3000002    2    3    0    0    0   2.7002246663E+01   5.0707686253E+01   1.0930628164E+02   1.2388807035E+02   1.0000000000E+01  7.306E-10   1.
3000001    1    4    0    0    0  -2.2975121253E+01  -3.3646451740E+01   2.6570048848E+01   4.8650872624E+01   1.0000000000E+00     0.000   1.
3000022   2   4   0   0   0   -4.0271254100E+00   -1.7061234513E+01   1.2828528647E+01   2.1724113547E+01   2.5000000000E-01   4.192812E+00   0.
3000001    1    5    0    0    0   4.2265824541E+00   1.1927926032E+01   3.2383846417E+01   3.4782940178E+01   1.0000000000E+00     0.000   1.
3000022   2   5   0   0   0   2.2775664209E+01   3.8779760221E+01   7.6922435218E+01   8.9105130171E+01   2.5000000000E-01   1.554122E+01   0.
13    1    7    0    0    0  -1.6653508230E+00  -7.0278738581E+00   5.2065446207E+00   8.9041302897E+00   1.0500000000E-01     0.000  -1.
-13    1    7    0    0    0  -2.3617745869E+00  -1.0033360654E+01   7.6219840263E+00   1.2819983257E+01   1.0500000000E-01     0.000   1.
13    1    9    0    0    0   1.3166616289E+01   2.2535893109E+01   4.4692876048E+01   5.1756066863E+01   1.0500000000E-01     0.000   1.
-13    1    9    0    0    0   9.6090479195E+00   1.6243867112E+01   3.2229559170E+01   3.7349063308E+01   1.0500000000E-01     0.000  -1.
</event>
<event>
 13   1  9.2978750E-05  1.2500000E+02  7.5467720E-03  1.2380620E-01
   21   -1    0    0  502  501   0.0000000000E+00   0.0000000000E+00   2.4692154654E+01   2.4692154654E+01   0.0000000000E+00     0.000   1.
   21   -1    0    0  501  502   0.0000000000E+00   0.0000000000E+00  -1.5819802098E+02   1.5819802098E+02   0.0000000000E+00     0.000   1.
   25    2    1    2    0    0   0.0000000000E+00   0.0000000000E+00  -1.3350586633E+02   1.8289017563E+02   1.2500000000E+02  1.242E-08  -1.
3000002    2    3    0    0    0   1.5681666761E+01  -5.6530486487E+01  -9.4692017925E+01   1.1184001446E+02   1.0000000000E+01  7.694E-10   1.
3000002    2    3    0    0    0  -1.5681666761E+01   5.6530486487E+01  -3.8813848405E+01   7.1050161174E+01   1.0000000000E+01  1.075E-09   1.
3000001    1    4    0    0    0   1.1091213944E+01  -3.8932509092E+01  -7.3467595538E+01   8.3888276208E+01   1.0000000000E+00     0.000   1.
3000022   2   4   0   0   0   4.5904528177E+00   -1.7597977395E+01   -2.1224422387E+01   2.7951738249E+01   2.5000000000E-01   5.472897E+00   0.
3000001    1    5    0    0    0  -1.3512240817E+01   4.9679368615E+01  -3.7593741434E+01   6.3756644461E+01   1.0000000000E+00     0.000   1.
3000022   2   5   0   0   0   -2.1694259446E+00   6.8511178718E+00   -1.2201069701E+00   7.2935167129E+00   2.5000000000E-01   3.966411E+00   0.
13    1    7    0    0    0   3.4759177120E+00  -1.3392279646E+01  -1.6158232781E+01   2.1272862282E+01   1.0500000000E-01     0.000  -1.
-13    1    7    0    0    0   1.1145351057E+00  -4.2056977491E+00  -5.0661896065E+00   6.6788759674E+00   1.0500000000E-01     0.000   1.
13    1    9    0    0    0  -6.4669060168E-01   2.1212472873E+00  -4.1912902135E-01   2.2593346199E+00   1.0500000000E-01     0.000  -1.
-13    1    9    0    0    0  -1.5227353429E+00   4.7298705846E+00  -8.0097794879E-01   5.0341820930E+00   1.0500000000E-01     0.000   1.
</event>
<event>
 13   1  9.2978750E-05  1.2500000E+02  7.5467720E-03  1.2380620E-01
   21   -1    0    0  502  501   0.0000000000E+00   0.0000000000E+00   5.5494205895E+01   5.5494205895E+01   0.0000000000E+00     0.000   1.
   21   -1    0    0  501  502   0.0000000000E+00   0.0000000000E+00  -7.0390231502E+01   7.0390231502E+01   0.0000000000E+00     0.000   1.
   25    2    1    2    0    0   0.0000000000E+00   0.0000000000E+00  -1.4896025607E+01   1.2588443740E+02   1.2500000000E+02  8.247E-08  -1.
3000002    2    3    0    0    0   4.3192326368E+01  -4.3064742339E+01   1.8966987838E+00   6.1836450060E+01   1.0000000000E+01  4.938E-10  -1.
3000002    2    3    0    0    0  -4.3192326368E+01   4.3064742339E+01  -1.6792724391E+01   6.4047987340E+01   1.0000000000E+01  1.321E-09  -1.
3000001    1    4    0    0    0   3.1422891385E+01  -3.5573952896E+01  -1.4118063486E+00   4.7496288537E+01   1.0000000000E+00     0.000  -1.
3000022   2   4   0   0   0   1.1769434983E+01   -7.4907894423E+00   3.3085051324E+00   1.4340161523E+01   2.5000000000E-01   8.170396E+00   0.
3000001    1    5    0    0    0  -2.7236820535E+01   2.1614539713E+01  -6.4287549970E+00   3.5374589901E+01   1.0000000000E+00     0.000  -1.
3000022   2   5   0   0   0   -1.5955505833E+01   2.1450202626E+01   -1.0363969394E+01   2.8673397439E+01   2.5000000000E-01   2.291125E+00   0.
13    1    7    0    0    0   3.4303048102E+00  -2.1880300988E+00   9.2066344157E-01   4.1729022247E+00   1.0500000000E-01     0.000   1.
-13    1    7    0    0    0   8.3391301729E+00  -5.3027593435E+00   2.3878416908E+00   1.0167259298E+01   1.0500000000E-01     0.000  -1.
13    1    9    0    0    0  -9.7035845096E+00   1.3066279031E+01  -6.3747081783E+00   1.7479563193E+01   1.0500000000E-01     0.000   1.
-13    1    9    0    0    0  -6.2519213239E+00   8.3839235946E+00  -3.9892612155E+00   1.1193834246E+01   1.0500000000E-01     0.000  -1.
</event>
<event>
 13   1  9.2978750E-05  1.2500000E+02  7.5467720E-03  1.2380620E-01
   21   -1    0    0  502  501   0.0000000000E+00   0.0000000000E+00   4.6004758150E+01   4.6004758150E+01   0.0000000000E+00     0.000  -1.
   21   -1    0    0  501  502   0.0000000000E+00   0.0000000000E+00  -8.4909695368E+01   8.4909695368E+01   0.0000000000E+00     0.000  -1.
   25    2    1    2    0    0   0.0000000000E+00   0.0000000000E+00  -3.8904937218E+01   1.3091445352E+02   1.2500000000E+02  5.182E-08  -1.
3000002    2    3    0    0    0  -3.1693691490E+01  -5.0768163832E+01  -3.7653214373E+00   6.0795346735E+01   1.0000000000E+01  1.086E-10   1.
3000002    2    3    0    0    0   3.1693691490E+01   5.0768163832E+01  -3.5139615781E+01   7.0119106785E+01   1.0000000000E+01  4.106E-10   1.
3000001    1    4    0    0    0  -2.7718757290E+01  -4.6373755060E+01  -5.2728229636E-01   5.4038252106E+01   1.0000000000E+00     0.000   1.
3000022   2   4   0   0   0   -3.9749342000E+00   -4.3944087723E+00   -3.2380391409E+00   6.7570946294E+00   2.5000000000E-01   1.425249E+00   0.
3000001    1    5    0    0    0   2.8341928060E+01   4.6626255766E+01  -3.4901912377E+01   6.4779750698E+01   1.0000000000E+00     0.000   1.
3000022   2   5   0   0   0   3.3517634294E+00   4.1419080662E+00   -2.3770340345E-01   5.3393560870E+00   2.5000000000E-01   8.716146E+00   0.
13    1    7    0    0    0  -1.3671234486E+00  -1.4549611140E+00  -1.0475229563E+00   2.2570484511E+00   1.0500000000E-01     0.000  -1.
-13    1    7    0    0    0  -2.6078107514E+00  -2.9394476584E+00  -2.1905161847E+00   4.5000461783E+00   1.0500000000E-01     0.000   1.
13    1    9    0    0    0   1.9368723850E+00   2.3857153704E+00  -2.0199297295E-01   3.0813858288E+00   1.0500000000E-01     0.000  -1.
-13    1    9    0    0    0   1.4148910444E+00   1.7561926958E+00  -3.5710430498E-02   2.2579702583E+00   1.0500000000E-01     0.000   1.
</event>
<event>
 13   1  9.2978750E-05  1.2500000E+02  7.5467720E-03  1.2380620E-01
   21   -1    0    0  502  501   0.0000000000E+00   0.0000000000E+00   8.1310828059E+00   8.1310828059E+00   0.0000000000E+00     0.000  -1.
   21   -1    0    0  501  502   0.0000000000E+00   0.0000000000E+00  -4.8040957069E+02   4.8040957069E+02   0.0000000000E+00     0.000  -1.
   25    2    1    2    0    0   0.0000000000E+00   0.0000000000E+00  -4.7227848788E+02   4.8854065349E+02   1.2500000000E+02  1.556E-08  -1.
3000002    2    3    0    0    0   3.7323487665E+01   3.8579253857E+01  -3.5499657670E+02   3.5917122801E+02   1.0000000000E+01  6.934E-10  -1.
3000002    2    3    0    0    0  -3.7323487665E+01  -3.8579253857E+01  -1.1728191118E+02   1.2936942548E+02   1.0000000000E+01  7.000E-11  -1.
3000001    1    4    0    0    0   2.3953929549E+01   2.9642585425E+01  -2.6834576091E+02   2.7104044165E+02   1.0000000000E+00     0.000   1.
3000022   2   4   0   0   0   1.3369558116E+01   8.9366684321E+00   -8.6650815785E+01   8.8130786353E+01   2.5000000000E-01   1.447620E+00   0.
3000001    1    5    0    0    0  -3.4191392602E+01  -3.8097759905E+01  -1.0722474685E+02   1.1882187078E+02   1.0000000000E+00     0.000  -1.
3000022   2   5   0   0   0   -3.1320950636E+00   -4.8149395190E-01   -1.0057164330E+01   1.0547554706E+01   2.5000000000E-01   5.056361E-01   0.
13    1    7    0    0    0   8.8754388646E+00   5.9961113906E+00  -5.7762982693E+01   5.8747765587E+01   1.0500000000E-01     0.000   1.
-13    1    7    0    0    0   4.4941192516E+00   2.9405570415E+00  -2.8887833092E+01   2.9383020766E+01   1.0500000000E-01     0.000  -1.
13    1    9    0    0    0  -1.1436112295E+00  -2.0016281112E-01  -3.5132036637E+00   3.7015586957E+00   1.0500000000E-01     0.000   1.
-13    1    9    0    0    0  -1.9884838341E+00  -2.8133114078E-01  -6.5439606664E+00   6.8459960103E+00   1.0500000000E-01     0.000  -1.
</event>
<event>
 13   1  9.2978750E-05  1.2500000E+02  7.5467720E-03  1.2380620E-01
   21   -1    0    0  502  501   0.0000000000E+00   0.0000000000E+00   1.3275311084E+01   1.3275311084E+01   0.0000000000E+00     0.000   1.
   21   -1    0    0  501  502   0.0000000000E+00   0.0000000000E+00  -2.9424922515E+02   2.9424922515E+02   0.0000000000E+00     0.000   1.
   25    2    1    2    0    0   0.0000000000E+00   0.0000000000E+00  -2.8097391407E+02   3.0752453623E+02   1.2500000000E+02  2.897E-09  -1.
3000002    2    3    0    0    0   4.0691841604E+01   3.1450953296E+01  -5.6650139333E+01   7.7163636013E+01   1.0000000000E+01  1.256E-10   1.
3000002    2    3    0    0    0  -4.0691841604E+01  -3.1450953296E+01  -2.2432377474E+02   2.3036090022E+02   1.0000000000E+01  6.261E-10   1.
3000001    1    4    0    0    0   1.0847598769E+01   4.6014337980E+00  -9.0269053650E+00   1.4877117077E+01   1.0000000000E+00     0.000  -1.
3000022   2   4   0   0   0   2.9844242836E+01   2.6849519498E+01   -4.7623233968E+01   6.2286518937E+01   2.5000000000E-01   6.103595E+00   0.
3000001    1    5    0    0    0  -3.5581601992E+01  -2.8451301986E+01  -1.8172684390E+02   1.8735306984E+02   1.0000000000E+00     0.000   1.
3000022   2   5   0   0   0   -5.1102396120E+00   -2.9996513097E+00   -4.2596930839E+01   4.3007830378E+01   2.5000000000E-01   1.652249E+01   0.
13    1    7    0    0    0   1.7919723842E+01   1.6177944389E+01  -2.8712303087E+01   3.7513327776E+01   1.0500000000E-01     0.000  -1.
-13    1    7    0    0    0   1.1924518994E+01   1.0671575108E+01  -1.8910930880E+01   2.4773191161E+01   1.0500000000E-01     0.000   1.
13    1    9    0    0    0  -2.3805789803E+00  -1.4553378835E+00  -2.0384865079E+01   2.0575201431E+01   1.0500000000E-01     0.000  -1.
-13    1    9    0    0    0  -2.7296606317E+00  -1.5443134262E+00  -2.2212065760E+01   2.2432628946E+01   1.0500000000E-01     0.000   1.
</event>
<event>
 13   1  9.2978750E-05  1.2500000E+02  7.5467720E-03  1.2380620E-01
   21   -1    0    0  502  501   0.0000000000E+00   0.0000000000E+00   1.8475037240E+02   1.8475037240E+02   0.0000000000E+00     0.000  -1.
   21   -1    0    0  501  502   0.0000000000E+00   0.0000000000E+00  -2.1143394458E+01   2.1143394458E+01   0.0000000000E+00     0.000  -1.
   25    2    1    2    0    0   0.0000000000E+00   0.0000000000E+00   1.6360697795E+02   2.0589376686E+02   1.2500000000E+02  1.648E-07  -1.
3000002    2    3    0    0    0  -1.4529380104E+01   3.6716435492E+01   3.7235256827E+00   4.0903107033E+01   1.0000000000E+01  1.938E-10   1.
3000002    2    3    0    0    0   1.4529380104E+01  -3.6716435492E+01   1.5988345227E+02   1.6499065983E+02   1.0000000000E+01  3.596E-10   1.
3000001    1    4    0    0    0  -1.4534764070E+01   3.3346667621E+01   5.9258881724E+00   3.6869713297E+01   1.0000000000E+00     0.000   1.
3000022   2   4   0   0   0   5.3839657946E-03   3.3697678704E+00   -2.2023624897E+00   4.0333937353E+00   2.5000000000E-01   1.563044E+01   0.
3000001    1    5    0    0    0   1.6120294614E-01  -8.6625296401E+00   2.5150326190E+01   2.6619622718E+01   1.0000000000E+00     0.000   1.
3000022   2   5   0   0   0   1.4368177158E+01   -2.8053905851E+01   1.3473312608E+02   1.3837103711E+02   2.5000000000E-01   4.684191E+00   0.
13    1    7    0    0    0   1.6926877886E-02   1.4416773723E+00  -8.6703500875E-01   1.6856734178E+00   1.0500000000E-01     0.000   1.
-13    1    7    0    0    0  -1.1542912091E-02   1.9280904982E+00  -1.3353274809E+00   2.3477203175E+00   1.0500000000E-01     0.000  -1.
13    1    9    0    0    0   8.9906652778E+00  -1.7658996099E+01   8.4861917401E+01   8.7144869357E+01   1.0500000000E-01     0.000  -1.
-13    1    9    0    0    0   5.3775118799E+00  -1.0394909752E+01   4.9871208676E+01   5.1226167752E+01   1.0500000000E-01     0.000   1.
</event>
<event>
 13   1  9.2978750E-05  1.2500000E+02  7.5467720E-03  1.2380620E-01
   21   -1    0    0  502  501   0.0000000000E+00   0.0000000000E+00   4.0303896039E+00   4.0303896039E+00   0.0000000000E+00     0.000   1.
   21   -1    0    0  501  502   0.0000000000E+00   0.0000000000E+00  -9.6919910576E+02   9.6919910576E+02   0.0000000000E+00     0.000   1.
   25    2    1    2    0    0   0.0000000000E+00   0.0000000000E+00  -9.6516871616E+02   9.7322949537E+02   1.2500000000E+02  1.755E-09  -1.
3000002    2    3    0    0    0  -3.4391111956E+01   9.7309480476E+00  -8.7411283550E+02   8.7490038811E+02   1.0000000000E+01  1.077E-09   1.
3000002    2    3    0    0    0   3.4391111956E+01  -9.7309480476E+00  -9.1055880658E+01   9.8329107257E+01   1.0000000000E+01  7.036E-11   1.
3000001    1    4    0    0    0  -1.1527717745E+00   2.2870889843E+00  -1.0119460051E+02   1.0123194570E+02   1.0000000000E+00     0.000  -1.
3000022   2   4   0   0   0   -3.3238340182E+01   7.4438590633E+00   -7.7291823499E+02   7.7366844241E+02   2.5000000000E-01   3.878909E-03   0.
3000001    1    5    0    0    0   8.8273531069E+00  -7.1097770777E+00  -2.5971471027E+01   2.8354689211E+01   1.0000000000E+00     0.000   1.
3000022   2   5   0   0   0   2.5563758849E+01   -2.6211709700E+00   -6.5084409631E+01   6.9974418046E+01   2.5000000000E-01   4.805568E-01   0.
13    1    7    0    0    0  -2.2182690407E+01   4.9172341848E+00  -5.1603455133E+02   5.1653452948E+02   1.0500000000E-01     0.000   1.
-13    1    7    0    0    0  -1.1055649774E+01   2.5266248786E+00  -2.5688368366E+02   2.5713391293E+02   1.0500000000E-01     0.000  -1.
13    1    9    0    0    0   1.0394852395E+01  -1.0020668552E+00  -2.6434512790E+01   2.8422730089E+01   1.0500000000E-01     0.000   1.
-13    1    9    0    0    0   1.5168906455E+01  -1.6191041148E+00  -3.8649896841E+01   4.1551687956E+01   1.0500000000E-01     0.000  -1.
</event>
<event>
 13   1  9.2978750E-05  1.2500000E+02  7.5467720E-03  1.2380620E-01
   21   -1    0    0  502  501   0.0000000000E+00   0.0000000000E+00   8.4750426180E+01   8.4750426180E+01   0.0000000000E+00     0.000   1.
   21   -1    0    0  501  502   0.0000000000E+00   0.0000000000E+00  -4.6091213650E+01   4.6091213650E+01   0.0000000000E+00     0.000   1.
   25    2    1    2    0    0   0.0000000000E+00   0.0000000000E+00   3.8659212529E+01   1.3084163983E+02   1.2500000000E+02  1.727E-08  -1.
3000002    2    3    0    0    0  -2.9264032305E+01  -3.9884537442E+01   5.7918300908E+01   7.6822454359E+01   1.0000000000E+01  1.411E-09  -1.
3000002    2    3    0    0    0   2.9264032305E+01   3.9884537442E+01  -1.9259088379E+01   5.4019185471E+01   1.0000000000E+01  1.413E-09  -1.
3000001    1    4    0    0    0  -8.1340905068E+00  -1.6730433617E+01   1.6553782508E+01   2.4921848902E+01   1.0000000000E+00     0.000   1.
3000022   2   4   0   0   0   -2.1129941799E+01   -2.3154103825E+01   4.1364518400E+01   5.1900605457E+01   2.5000000000E-01   1.159114E+01   0.
3000001    1    5    0    0    0   1.4509560366E+01   2.1850177374E+01  -5.0588528341E+00   2.6731060310E+01   1.0000000000E+00     0.000  -1.
3000022   2   5   0   0   0   1.4754471939E+01   1.8034360068E+01   -1.4200235545E+01   2.7288125161E+01   2.5000000000E-01   2.655018E+00   0.
13    1    7    0    0    0  -1.0898599775E+01  -1.1874870478E+01   2.1352075545E+01   2.6752835008E+01   1.0500000000E-01     0.000  -1.
-13    1    7    0    0    0  -1.0231342024E+01  -1.1279233347E+01   2.0012442855E+01   2.5147770448E+01   1.0500000000E-01     0.000   1.
13    1    9    0    0    0   1.1261644201E+01   1.3775727275E+01  -1.0860232150E+01   2.0845885910E+01   1.0500000000E-01     0.000  -1.
-13    1    9    0    0    0   3.4928277387E+00   4.2586327937E+00  -3.3400033951E+00   6.4422392507E+00   1.0500000000E-01     0.000   1.
</event>
<event>
 13   1  9.2978750E-05  1.2500000E+02  7.5467720E-03  1.2380620E-01
   21   -1    0    0  502  501   0.0000000000E+00   0.0000000000E+00   3.1397816481E+01   3.1397816481E+01   0.0000000000E+00     0.000   1.
   21   -1    0    0  501  502   0.0000000000E+00   0.0000000000E+00  -1.2441151767E+02   1.2441151767E+02   0.0000000000E+00     0.000   1.
   25    2    1    2    0    0   0.0000000000E+00   0.0000000000E+00  -9.3013701193E+01   1.5580933415E+02   1.2500000000E+02  2.189E-08  -1.
3000002    2    3    0    0    0   1.1741379552E+01  -5.0420276541E+01  -4.6767926097E+00   5.2933322863E+01   1.0000000000E+01  8.309E-10  -1.
3000002    2    3    0    0    0  -1.1741379552E+01   5.0420276541E+01  -8.8336908583E+01   1.0287601129E+02   1.0000000000E+01  9.519E-10  -1.
3000001    1    4    0    0    0   5.9826020684E+00  -2.8552066802E+01  -7.5140819826E+00   3.0140893720E+01   1.0000000000E+00     0.000   1.
3000022   2   4   0   0   0   5.7587774834E+00   -2.1868209739E+01   2.8372893729E+00   2.2792429144E+01   2.5000000000E-01   7.630304E+00   0.
3000001    1    5    0    0    0  -8.8903728823E+00   4.0621029132E+01  -6.2299502247E+01   7.4908842722E+01   1.0000000000E+00     0.000  -1.
3000022   2   5   0   0   0   -2.8510066695E+00   9.7992474087E+00   -2.6037406336E+01   2.7967168565E+01   2.5000000000E-01   2.993541E+00   0.
13    1    7    0    0    0   3.8018306869E+00  -1.4265333844E+01   1.8875917933E+00   1.4883806436E+01   1.0500000000E-01     0.000   1.
-13    1    7    0    0    0   1.9569467965E+00  -7.6028758952E+00   9.4969757951E-01   7.9086227078E+00   1.0500000000E-01     0.000  -1.
13    1    9    0    0    0  -9.9607792625E-01   3.2650870082E+00  -8.7944549078E+00   9.4343217314E+00   1.0500000000E-01     0.000  -1.
-13    1    9    0    0    0  -1.8549287432E+00   6.5341604005E+00  -1.7242951429E+01   1.8532846833E+01   1.0500000000E-01     0.000   1.
</event>
<event>
 13   1  9.2978750E-05  1.2500000E+02  7.5467720E-03  1.2380620E-01
   21   -1    0    0  502  501   0.0000000000E+00   0.0000000000E+00   3.3191265363E+01   3.3191265363E+01   0.0000000000E+00     0.000  -1.
   21   -1    0    0  501  502   0.0000000000E+00   0.0000000000E+00  -1.1768909553E+02   1.1768909553E+02   0.0000000000E+00     0.000  -1.
   25    2    1    2    0    0   0.0000000000E+00   0.0000000000E+00  -8.4497830164E+01   1.5088036089E+02   1.2500000000E+02  6.738E-09  -1.
3000002    2    3    0    0    0   2.5952240736E+01  -2.9232878992E+01   1.5363457972E+01   4.3175407979E+01   1.0000000000E+01  1.649E-11   1.
3000002    2    3    0    0    0  -2.5952240736E+01   2.9232878992E+01  -9.9861288136E+01   1.0770495291E+02   1.0000000000E+01  5.006E-10   1.
3000001    1    4    0    0    0   1.2721510783E+01  -7.4602676889E+00   4.2653222914E+00   1.5384583350E+01   1.0000000000E+00     0.000  -1.
3000022   2   4   0   0   0   1.3230729952E+01   -2.1772611303E+01   1.1098135680E+01   2.7790824630E+01   2.5000000000E-01   1.331410E+00   0.
3000001    1    5    0    0    0  -1.3093927543E+01   9.1101622862E+00  -3.2107237247E+01   3.5865313034E+01   1.0000000000E+00     0.000   1.
3000022   2   5   0   0   0   -1.2858313192E+01   2.0122716705E+01   -6.7754050889E+01   7.1839639877E+01   2.5000000000E-01   2.400965E+00   0.
13    1    7    0    0    0   7.6637333457E+00  -1.2734975647E+01   6.4662716865E+00   1.6209136561E+01   1.0500000000E-01     0.000  -1.
-13    1    7    0    0    0   5.5669966068E+00  -9.0376356558E+00   4.6318639938E+00   1.1581688069E+01   1.0500000000E-01     0.000   1.
13    1    9    0    0    0  -8.2062751831E+00   1.2945108250E+01  -4.3536613095E+01   4.6155893283E+01   1.0500000000E-01     0.000  -1.
-13    1    9    0    0    0  -4.6520380092E+00   7.1776084554E+00  -2.4217437795E+01   2.5683746594E+01   1.0500000000E-01     0.000   1.
</event>
<event>
 13   1  9.2978750E-05  1.2500000E+02  7.5467720E-03  1.2380620E-01
   21   -1    0    0  502  501   0.0000000000E+00   0.0000000000E+00   5.5676311190E+00   5.5676311190E+00   0.0000000000E+00     0.000   1.
   21   -1    0    0  501  502   0.0000000000E+00   0.0000000000E+00  -7.0160000124E+02   7.0160000124E+02   0.0000000000E+00     0.000   1.
   25    2    1    2    0    0   0.0000000000E+00   0.0000000000E+00  -6.9603237012E+02   7.0716763236E+02   1.2500000000E+02  5.107E-08  -1.
3000002    2    3    0    0    0   5.0178111543E+01   3.0004585117E+01  -4.5947183365E+02   4.6328445250E+02   1.0000000000E+01  2.841E-10  -1.
3000002    2    3    0    0    0  -5.0178111543E+01  -3.0004585117E+01  -2.3656053647E+02   2.4388317986E+02   1.0000000000E+01  1.400E-09  -1.
3000001    1    4    0    0    0   1.2421428650E+01   1.2593331728E+01  -1.4261530817E+02   1.4371155145E+02   1.0000000000E+00     0.000   1.
3000022   2   4   0   0   0   3.7756682893E+01   1.7411253388E+01   -3.1685652548E+02   3.1957290105E+02   2.5000000000E-01   7.728251E-02   0.
3000001    1    5    0    0    0  -1.1756376819E+01  -1.0528851671E+01  -5.1383411064E+01   5.3761734031E+01   1.0000000000E+00     0.000   1.
3000022   2   5   0   0   0   -3.8421734723E+01   -1.9475733446E+01   -1.8517712540E+02   1.9012144583E+02   2.5000000000E-01   9.046136E+00   0.
13    1    7    0    0    0   1.4566056944E+01   6.7256687405E+00  -1.2179904768E+02   1.2285122578E+02   1.0500000000E-01     0.000  -1.
-13    1    7    0    0    0   2.3190625948E+01   1.0685584648E+01  -1.9505747780E+02   1.9672167528E+02   1.0500000000E-01     0.000   1.
13    1    9    0    0    0  -1.1436440298E+01  -5.7833790003E+00  -5.5285467537E+01   5.6751507338E+01   1.0500000000E-01     0.000  -1.
-13    1    9    0    0    0  -2.6985294425E+01  -1.3692354446E+01  -1.2989165787E+02   1.3336993849E+02   1.0500000000E-01     0.000   1.
</event>
<event>
 13   1  9.2978750E-05  1.2500000E+02  7.5467720E-03  1.2380620E-01
   21   -1    0    0  502  501   0.0000000000E+00   0.0000000000E+00   3.7851635270E+02   3.7851635270E+02   0.0000000000E+00     0.000   1.
   21   -1    0    0  501  502   0.0000000000E+00   0.0000000000E+00  -1.0319897601E+01   1.0319897601E+01   0.0000000000E+00     0.000   1.
   25    2    1    2    0    0   0.0000000000E+00   0.0000000000E+00   3.6819645509E+02   3.8883625030E+02   1.2500000000E+02  2.687E-08  -1.
3000002    2    3    0    0    0   3.8778377996E+01  -2.9718526792E+01   3.0128897101E+02   3.0538827333E+02   1.0000000000E+01  4.495E-10  -1.
3000002    2    3    0    0    0  -3.8778377996E+01   2.9718526792E+01   6.6907484083E+01   8.3447976974E+01   1.0000000000E+01  3.416E-10  -1.
3000001    1    4    0    0    0   3.3758823573E+01  -2.9476278588E+01   2.6897336613E+02   2.7268329772E+02   1.0000000000E+00     0.000  -1.
3000022   2   4   0   0   0   5.0195544229E+00   -2.4224820354E-01   3.2315604880E+01   3.2704975608E+01   2.5000000000E-01   3.041878E+00   0.
3000001    1    5    0    0    0  -3.2061886775E+01   1.9698818551E+01   4.7680709389E+01   6.0749140601E+01   1.0000000000E+00     0.000  -1.
3000022   2   5   0   0   0   -6.7164912209E+00   1.0019708241E+01   1.9226774694E+01   2.2698836373E+01   2.5000000000E-01   1.337700E+01   0.
13    1    7    0    0    0   3.6685181320E+00  -2.0534114402E-01   2.3749115244E+01   2.4031889026E+01   1.0500000000E-01     0.000   1.
-13    1    7    0    0    0   1.3510362909E+00  -3.6907059517E-02   8.5664896358E+00   8.6730865827E+00   1.0500000000E-01     0.000  -1.
13    1    9    0    0    0  -2.0314124882E+00   3.1154033382E+00   5.9136783445E+00   6.9867725896E+00   1.0500000000E-01     0.000  -1.
-13    1    9    0    0    0  -4.6850787328E+00   6.9043049029E+00   1.3313096349E+01   1.5712063783E+01   1.0500000000E-01     0.000   1.
</event>
<event>
 13   1  9.2978750E-05  1.2500000E+02  7.5467720E-03  1.2380620E-01
   21   -1    0    0  502  501   0.0000000000E+00   0.0000000000E+00   3.6323634870E+02   3.6323634870E+02   0.0000000000E+00     0.000  -1.
   21   -1    0    0  501  502   0.0000000000E+00   0.0000000000E+00  -1.0754017361E+01   1.0754017361E+01   0.0000000000E+00     0.000  -1.
   25    2    1    2    0    0   0.0000000000E+00   0.0000000000E+00   3.5248233134E+02   3.7399036606E+02   1.2500000000E+02  2.178E-08  -1.
3000002    2    3    0    0    0   4.2725170181E+01   4.1442112768E+01   2.2479530206E+02   2.3275699067E+02   1.0000000000E+01  3.891E-10  -1.
3000002    2    3    0    0    0  -4.2725170181E+01  -4.1442112768E+01   1.2768702928E+02   1.4123337539E+02   1.0000000000E+01  4.484E-11  -1.
3000001    1    4    0    0    0   3.6150934732E+01   3.6656434505E+01   1.7963655290E+02   1.8687128033E+02   1.0000000000E+00     0.000  -1.
3000022   2   4   0   0   0   6.5742354482E+00   4.7856782628E+00   4.5158749158E+01   4.5885710343E+01   2.5000000000E-01   6.062697E+00   0.
3000001    1    5    0    0    0  -2.5583730557E+01  -2.9522989021E+01   9.0688379558E+01   9.8749766262E+01   1.0000000000E+00     0.000  -1.
3000022   2   5   0   0   0   -1.7141439624E+01   -1.1919123747E+01   3.6998649721E+01   4.2483609127E+01   2.5000000000E-01   4.098421E+00   0.
13    1    7    0    0    0   2.6453357548E+00   1.9120623736E+00   1.8481681346E+01   1.8767987483E+01   1.0500000000E-01     0.000   1.
-13    1    7    0    0    0   3.9288996933E+00   2.8736158892E+00   2.6677067811E+01   2.7117722859E+01   1.0500000000E-01     0.000  -1.
13    1    9    0    0    0  -5.8534465615E+00  -4.1313919288E+00   1.2744060267E+01   1.4620305503E+01   1.0500000000E-01     0.000   1.
-13    1    9    0    0    0  -1.1287993062E+01  -7.7877318182E+00   2.4254589454E+01   2.7863303623E+01   1.0500000000E-01     0.000  -1.
</event>
<event>
 13   1  9.2978750E-05  1.2500000E+02  7.5467720E-03  1.2380620E-01
   21   -1    0    0  502  501   0.0000000000E+00   0.0000000000E+00   3.7842666190E+02   3.7842666190E+02   0.0000000000E+00     0.000  -1.
   21   -1    0    0  501  502   0.0000000000E+00   0.0000000000E+00  -1.0322343517E+01   1.0322343517E+01   0.0000000000E+00     0.000  -1.
   25    2    1    2    0    0   0.0000000000E+00   0.0000000000E+00   3.6810431838E+02   3.8874900541E+02   1.2500000000E+02  1.785E-08  -1.
3000002    2    3    0    0    0   3.0808900457E+01   5.3206924713E+01   1.9993591328E+02   2.0941474305E+02   1.0000000000E+01  1.612E-09   1.
3000002    2    3    0    0    0  -3.0808900457E+01  -5.3206924713E+01   1.6816840510E+02   1.7933426236E+02   1.0000000000E+01  6.641E-10   1.
3000001    1    4    0    0    0   2.8928385815E+01   4.5734502892E+01   1.8235200470E+02   1.9021500960E+02   1.0000000000E+00     0.000   1.
3000022   2   4   0   0   0   1.8805146420E+00   7.4724218206E+00   1.7583908585E+01   1.9199733443E+01   2.5000000000E-01   1.767527E+01   0.
3000001    1    5    0    0    0  -1.7530495034E+01  -3.3568154249E+01   8.9951517438E+01   9.7603354067E+01   1.0000000000E+00     0.000   1.
3000022   2   5   0   0   0   -1.3278405423E+01   -1.9638770464E+01   7.8216887659E+01   8.1730908297E+01   2.5000000000E-01   1.509401E+00   0.
13    1    7    0    0    0   6.9296160454E-01   2.7388143223E+00   6.3025956444E+00   6.9076071497E+00   1.0500000000E-01     0.000   1.
-13    1    7    0    0    0   1.1875530374E+00   4.7336074983E+00   1.1281312940E+01   1.2292126294E+01   1.0500000000E-01     0.000  -1.
13    1    9    0    0    0  -4.4354827576E+00  -6.5529729607E+00   2.5925082480E+01   2.7106012036E+01   1.0500000000E-01     0.000   1.
-13    1    9    0    0    0  -8.8429226652E+00  -1.3085797503E+01   5.2291805179E+01   5.4624896260E+01   1.0500000000E-01     0.000  -1.
</event>
<event>
 13   1  9.2978750E-05  1.2500000E+02  7.5467720E-03  1.2380620E-01
   21   -1    0    0  502  501   0.0000000000E+00   0.0000000000E+00   5.1816910593E+01   5.1816910593E+01   0.0000000000E+00     0.000   1.
   21   -1    0    0  501  502   0.0000000000E+00   0.0000000000E+00  -7.5385621322E+01   7.5385621322E+01   0.0000000000E+00     0.000   1.
   25    2    1    2    0    0   0.0000000000E+00   0.0000000000E+00  -2.3568710729E+01   1.2720253191E+02   1.2500000000E+02  1.753E-09  -1.
3000002    2    3    0    0    0   1.6933259229E+01   4.1047875557E+01   3.1802431674E+01   5.5525291681E+01   1.0000000000E+01  2.641E-10  -1.
3000002    2    3    0    0    0  -1.6933259229E+01  -4.1047875557E+01  -5.5371142403E+01   7.1677240229E+01   1.0000000000E+01  2.948E-11  -1.
3000001    1    4    0    0    0   1.4466739138E+01   3.9673955267E+01   2.7607997727E+01   5.0462964700E+01   1.0000000000E+00     0.000  -1.
3000022   2   4   0   0   0   2.4665200909E+00   1.3739202897E+00   4.1944339477E+00   5.0623269810E+00   2.5000000000E-01   2.667690E+00   0.
3000001    1    5    0    0    0  -5.2887856154E+00  -7.6709179148E+00  -1.7630437033E+01   1.9966134952E+01   1.0000000000E+00     0.000  -1.
3000022   2   5   0   0   0   -1.1644473614E+01   -3.3376957642E+01   -3.7740705371E+01   5.1711105278E+01   2.5000000000E-01   4.372584E+00   0.
13    1    7    0    0    0   1.5335050046E+00   9.0893381812E-01   2.5800086527E+00   3.1377169937E+00   1.0500000000E-01     0.000   1.
-13    1    7    0    0    0   9.3301508629E-01   4.6498647161E-01   1.6144252950E+00   1.9246099873E+00   1.0500000000E-01     0.000  -1.
13    1    9    0    0    0  -6.3884308989E+00  -1.8508936507E+01  -2.0924295411E+01   2.8657109824E+01   1.0500000000E-01     0.000   1.
-13    1    9    0    0    0  -5.2560427147E+00  -1.4868021134E+01  -1.6816409959E+01   2.3053995454E+01   1.0500000000E-01     0.000  -1.
</event>
<event>
 13   1  9.2978750E-05  1.2500000E+02  7.5467720E-03  1.2380620E-01
   21   -1    0    0  502  501   0.0000000000E+00   0.0000000000E+00   4.6912718638E+02   4.6912718638E+02   0.0000000000E+00     0.000   1.
   21   -1    0    0  501  502   0.0000000000E+00   0.0000000000E+00  -8.3266331891E+00   8.3266331891E+00   0.0000000000E+00     0.000   1.
   25    2    1    2    0    0   0.0000000000E+00   0.0000000000E+00   4.6080055319E+02   4.7745381956E+02   1.2500000000E+02  3.196E-08  -1.
3000002    2    3    0    0    0  -5.0705875065E+01  -3.4833689830E+01   2.4822542668E+02   2.5593033069E+02   1.0000000000E+01  4.924E-11   1.
3000002    2    3    0    0    0   5.0705875065E+01   3.4833689830E+01   2.1257512651E+02   2.2152348887E+02   1.0000000000E+01  3.140E-10   1.
3000001    1    4    0    0    0  -2.0378587558E+01  -1.0593814025E+01   1.0865461079E+02   1.1106007461E+02   1.0000000000E+00     0.000  -1.
3000022   2   4   0   0   0   -3.0327287507E+01   -2.4239875805E+01   1.3957081589E+02   1.4487025607E+02   2.5000000000E-01   5.638001E+00   0.
3000001    1    5    0    0    0   3.8178365426E+01   2.3858828621E+01   1.4011511890E+02   1.4717363158E+02   1.0000000000E+00     0.000   1.
3000022   2   5   0   0   0   1.2527509639E+01   1.0974861209E+01   7.2460007612E+01   7.4349857293E+01   2.5000000000E-01   1.569657E+01   0.
13    1    7    0    0    0  -1.4627756867E+01  -1.1609056032E+01   6.7057663263E+01   6.9609501364E+01   1.0500000000E-01     0.000   1.
-13    1    7    0    0    0  -1.5699530640E+01  -1.2630819773E+01   7.2513152626E+01   7.5260754708E+01   1.0500000000E-01     0.000  -1.
13    1    9    0    0    0   3.4069282255E+00   2.9371167487E+00   1.9591653906E+01   2.0101685066E+01   1.0500000000E-01     0.000   1.
-13    1    9    0    0    0   9.1205814137E+00   8.0377444601E+00   5.2868353706E+01   5.4248172227E+01   1.0500000000E-01     0.000  -1.
</event>
<event>
 13   1  9.2978750E-05  1.2500000E+02  7.5467720E-03  1.2380620E-01
   21   -1    0    0  502  501   0.0000000000E+00   0.0000000000E+00   8.2653621630E+01   8.2653621630E+01   0.0000000000E+00     0.000   1.
   21   -1    0    0  501  502   0.0000000000E+00   0.0000000000E+00  -4.7260482033E+01   4.7260482033E+01   0.0000000000E+00     0.000   1.
   25    2    1    2    0    0   0.0000000000E+00   0.0000000000E+00   3.5393139597E+01   1.2991410366E+02   1.2500000000E+02  1.509E-07  -1.
3000002    2    3    0    0    0  -6.1969847291E+00  -1.2430406652E-01   8.1492364129E+01   8.2337254524E+01   1.0000000000E+01  2.328E-10   1.
3000002    2    3    0    0    0   6.1969847291E+00   1.2430406652E-01  -4.6099224532E+01   4.7576849136E+01   1.0000000000E+01  2.247E-10   1.
3000001    1    4    0    0    0  -8.1387629007E+00   9.9754482458E-01   7.5204061484E+01   7.5656364048E+01   1.0000000000E+00     0.000   1.
3000022   2   4   0   0   0   1.9417781716E+00   -1.1218488911E+00   6.2883026446E+00   6.6808904760E+00   2.5000000000E-01   1.261115E+00   0.
3000001    1    5    0    0    0  -1.0176085802E+00  -2.8768192329E-01  -2.8674876026E+01   2.8711788575E+01   1.0000000000E+00     0.000  -1.
3000022   2   5   0   0   0   7.2145933094E+00   4.1198598981E-01   -1.7424348506E+01   1.8865060560E+01   2.5000000000E-01   1.175791E+00   0.
13    1    7    0    0    0   8.6426547222E-01  -4.2416530898E-01   2.7194200744E+00   2.8867181291E+00   1.0500000000E-01     0.000   1.
-13    1    7    0    0    0   1.0775126994E+00  -6.9768358212E-01   3.5688825702E+00   3.7941723469E+00   1.0500000000E-01     0.000  -1.
13    1    9    0    0    0   3.0322739300E+00   1.7964620579E-01  -7.1576399601E+00   7.7762325547E+00   1.0500000000E-01     0.000   1.
-13    1    9    0    0    0   4.1823193793E+00   2.3233978402E-01  -1.0266708546E+01   1.1088828006E+01   1.0500000000E-01     0.000  -1.
</event>
<event>
 13   1  9.2978750E-05  1.2500000E+02  7.5467720E-03  1.2380620E-01
   21   -1    0    0  502  501   0.0000000000E+00   0.0000000000E+00   5.1248154396E+00   5.1248154396E+00   0.0000000000E+00     0.000   1.
   21   -1    0    0  501  502   0.0000000000E+00   0.0000000000E+00  -7.6222257095E+02   7.6222257095E+02   0.0000000000E+00     0.000   1.
   25    2    1    2    0    0   0.0000000000E+00   0.0000000000E+00  -7.5709775551E+02   7.6734738638E+02   1.2500000000E+02  7.030E-10  -1.
3000002    2    3    0    0    0  -1.5801037892E+00   6.0907790832E+01  -3.1903301572E+02   3.2495279785E+02   1.0000000000E+01  4.949E-10  -1.
3000002    2    3    0    0    0   1.5801037892E+00  -6.0907790832E+01  -4.3806473979E+02   4.4239458853E+02   1.0000000000E+01  1.457E-10  -1.
3000001    1    4    0    0    0  -2.3550083295E+00   8.8084460212E+00  -3.5125159072E+01   3.6303052012E+01   1.0000000000E+00     0.000   1.
3000022   2   4   0   0   0   7.7490454028E-01   5.2099344811E+01   -2.8390785665E+02   2.8864974584E+02   2.5000000000E-01   3.722439E-03   0.
3000001    1    5    0    0    0   4.8515622530E-01  -5.2591824330E+01  -3.9793992472E+02   4.0140169288E+02   1.0000000000E+00     0.000  -1.
3000022   2   5   0   0   0   1.0949475639E+00   -8.3159665021E+00   -4.0124815073E+01   4.0992895649E+01   2.5000000000E-01   1.611686E-01   0.
13    1    7    0    0    0   2.1972499870E-01   1.7703676176E+01  -9.6287741786E+01   9.7902036100E+01   1.0500000000E-01     0.000  -1.
-13    1    7    0    0    0   5.5517954159E-01   3.4395668636E+01  -1.8762011486E+02   1.9074770974E+02   1.0500000000E-01     0.000   1.
13    1    9    0    0    0   5.9991561100E-01  -4.7078369894E+00  -2.2394105535E+01   2.2891714998E+01   1.0500000000E-01     0.000   1.
-13    1    9    0    0    0   4.9503195287E-01  -3.6081295127E+00  -1.7730709538E+01   1.8101180650E+01   1.0500000000E-01     0.000  -1.
</event>
<event>
 13   1  9.2978750E-05  1.2500000E+02  7.5467720E-03  1.2380620E-01
   21   -1    0    0  502  501   0.0000000000E+00   0.0000000000E+00   1.8145701920E+01   1.8145701920E+01   0.0000000000E+00     0.000   1.
   21   -1    0    0  501  502   0.0000000000E+00   0.0000000000E+00  -2.1527136383E+02   2.1527136383E+02   0.0000000000E+00     0.000   1.
   25    2    1    2    0    0   0.0000000000E+00   0.0000000000E+00  -1.9712566191E+02   2.3341706575E+02   1.2500000000E+02  4.601E-08  -1.
3000002    2    3    0    0    0  -3.0334356224E+01  -4.7143421306E+01  -5.0460348604E+01   7.6084966460E+01   1.0000000000E+01  2.626E-10  -1.
3000002    2    3    0    0    0   3.0334356224E+01   4.7143421306E+01  -1.4666531331E+02   1.5733209929E+02   1.0000000000E+01  1.304E-09  -1.
3000001    1    4    0    0    0  -1.3365028638E+00  -8.2544804950E+00  -8.0319038270E+00   1.1637618624E+01   1.0000000000E+00     0.000  -1.
3000022   2   4   0   0   0   -2.8997853361E+01   -3.8888940810E+01   -4.2428444777E+01   6.4447347836E+01   2.5000000000E-01   6.672371E+00   0.
3000001    1    5    0    0    0   1.1259673861E+01   1.4726693477E+01  -3.7010560166E+01   4.1405764333E+01   1.0000000000E+00     0.000   1.
3000022   2   5   0   0   0   1.9074682364E+01   3.2416727829E+01   -1.0965475314E+02   1.1592633496E+02   2.5000000000E-01   4.614750E+00   0.
13    1    7    0    0    0  -8.4887511748E+00  -1.1454748305E+01  -1.2452788827E+01   1.8930217374E+01   1.0500000000E-01     0.000   1.
-13    1    7    0    0    0  -2.0509102186E+01  -2.7434192505E+01  -2.9975655950E+01   4.5517130462E+01   1.0500000000E-01     0.000  -1.
13    1    9    0    0    0   1.0899643247E+01   1.8607537244E+01  -6.3022075526E+01   6.6609576593E+01   1.0500000000E-01     0.000   1.
-13    1    9    0    0    0   8.1750391170E+00   1.3809190584E+01  -4.6632677614E+01   4.9316758365E+01   1.0500000000E-01     0.000  -1.
</event>
<event>
 13   1  9.2978750E-05  1.2500000E+02  7.5467720E-03  1.2380620E-01
   21   -1    0    0  502  501   0.0000000000E+00   0.0000000000E+00   6.5512383887E+00   6.5512383887E+00   0.0000000000E+00     0.000   1.
   21   -1    0    0  501  502   0.0000000000E+00   0.0000000000E+00  -5.9626131248E+02   5.9626131248E+02   0.0000000000E+00     0.000   1.
   25    2    1    2    0    0   0.0000000000E+00   0.0000000000E+00  -5.8971007409E+02   6.0281255087E+02   1.2500000000E+02  1.050E-08  -1.
3000002    2    3    0    0    0   1.3854202342E+01  -5.9232086779E+01  -2.4523458375E+02   2.5286435117E+02   1.0000000000E+01  8.129E-11   1.
3000002    2    3    0    0    0  -1.3854202342E+01   5.9232086779E+01  -3.4447549034E+02   3.4994819970E+02   1.0000000000E+01  4.599E-10   1.
3000001    1    4    0    0    0   6.6767126788E+00  -1.4064964659E+01  -7.4055871991E+01   7.5681397314E+01   1.0000000000E+00     0.000   1.
3000022   2   4   0   0   0   7.1774896631E+00   -4.5167122120E+01   -1.7117871176E+02   1.7718295386E+02   2.5000000000E-01   3.100406E+00   0.
3000001    1    5    0    0    0  -1.0461238978E+01   3.9402939483E+01  -2.0365960418E+02   2.0770234360E+02   1.0000000000E+00     0.000   1.
3000022   2   5   0   0   0   -3.3929633643E+00   1.9829147296E+01   -1.4081588616E+02   1.4224585610E+02   2.5000000000E-01   5.289855E-01   0.
13    1    7    0    0    0   4.1554471203E+00  -2.5808335767E+01  -9.7987828948E+01   1.0141480948E+02   1.0500000000E-01     0.000  -1.
-13    1    7    0    0    0   3.0220425428E+00  -1.9358786352E+01  -7.3190882813E+01   7.5768144376E+01   1.0500000000E-01     0.000   1.
13    1    9    0    0    0  -1.2696326816E+00   7.1073964124E+00  -5.0708795441E+01   5.1220308580E+01   1.0500000000E-01     0.000   1.
-13    1    9    0    0    0  -2.1233306827E+00   1.2721750884E+01  -9.0107090718E+01   9.1025547520E+01   1.0500000000E-01     0.000  -1.
</event>
<event>
 13   1  9.2978750E-05  1.2500000E+02  7.5467720E-03  1.2380620E-01
   21   -1    0    0  502  501   0.0000000000E+00   0.0000000000E+00   3.7329799324E+02   3.7329799324E+02   0.0000000000E+00     0.000  -1.
   21   -1    0    0  501  502   0.0000000000E+00   0.0000000000E+00  -1.0464160190E+01   1.0464160190E+01   0.0000000000E+00     0.000  -1.
   25    2    1    2    0    0   0.0000000000E+00   0.0000000000E+00   3.6283383305E+02   3.8376215343E+02   1.2500000000E+02  1.209E-08  -1.
3000002    2    3    0    0    0  -5.8990364841E+01   1.5881364377E+01   1.5497677982E+02   1.6688284262E+02   1.0000000000E+01  2.607E-10   1.
3000002    2    3    0    0    0   5.8990364841E+01  -1.5881364377E+01   2.0785705323E+02   2.1687931081E+02   1.0000000000E+01  4.457E-10   1.
3000001    1    4    0    0    0  -1.4287625519E+01  -3.1226275555E-01   3.3672267174E+01   3.6593104919E+01   1.0000000000E+00     0.000   1.
3000022   2   4   0   0   0   -4.4702739322E+01   1.6193627133E+01   1.2130451264E+02   1.3028973770E+02   2.5000000000E-01   5.381349E-01   0.
3000001    1    5    0    0    0   5.4879332564E+01  -1.3670843049E+01   1.8147364252E+02   1.9008502314E+02   1.0000000000E+00     0.000   1.
3000022   2   5   0   0   0   4.1110322777E+00   -2.2105213276E+00   2.6383410711E+01   2.6794287669E+01   2.5000000000E-01   9.023467E-01   0.
13    1    7    0    0    0  -2.1995192676E+01   8.0280396492E+00   5.9840189385E+01   6.4258051730E+01   1.0500000000E-01     0.000  -1.
-13    1    7    0    0    0  -2.2707546646E+01   8.1655874833E+00   6.1464323259E+01   6.6031685972E+01   1.0500000000E-01     0.000   1.
13    1    9    0    0    0   2.0612232366E+00  -1.1531505704E+00   1.3031842271E+01   1.3244558711E+01   1.0500000000E-01     0.000  -1.
-13    1    9    0    0    0   2.0498090410E+00  -1.0573707571E+00   1.3351568440E+01   1.3549728958E+01   1.0500000000E-01     0.000   1.
</event>
<event>
 13   1  9.2978750E-05  1.2500000E+02  7.5467720E-03  1.2380620E-01
   21   -1    0    0  502  501   0.0000000000E+00   0.0000000000E+00   6.6090552378E+01   6.6090552378E+01   0.0000000000E+00     0.000  -1.
   21   -1    0    0  501  502   0.0000000000E+00   0.0000000000E+00  -5.9104514329E+01   5.9104514329E+01   0.0000000000E+00     0.000  -1.
   25    2    1    2    0    0   0.0000000000E+00   0.0000000000E+00   6.9860380487E+00   1.2519506671E+02   1.2500000000E+02  1.009E-08  -1.
3000002    2    3    0    0    0   4.7697590289E+01   3.3412246072E+01  -1.6905690704E+01   6.1459260370E+01   1.0000000000E+01  6.480E-11  -1.
3000002    2    3    0    0    0  -4.7697590289E+01  -3.3412246072E+01   2.3891728753E+01   6.3735806340E+01   1.0000000000E+01  1.344E-10  -1.
3000001    1    4    0    0    0   6.5081020497E+00   1.9371059501E+00   2.1206136262E-01   6.8667854032E+00   1.0000000000E+00     0.000   1.
3000022   2   4   0   0   0   4.1189488240E+01   3.1475140122E+01   -1.7117752067E+01   5.4592474967E+01   2.5000000000E-01   4.225019E-01   0.
3000001    1    5    0    0    0  -2.2132198036E+01  -1.1155788202E+01   1.3715474509E+01   2.8344312328E+01   1.0000000000E+00     0.000  -1.
3000022   2   5   0   0   0   -2.5565392253E+01   -2.2256457870E+01   1.0176254244E+01   3.5391494013E+01   2.5000000000E-01   1.782230E-01   0.
13    1    7    0    0    0   1.9226544935E+01   1.4674282864E+01  -8.0560262396E+00   2.5493238152E+01   1.0500000000E-01     0.000  -1.
-13    1    7    0    0    0   2.1962943305E+01   1.6800857258E+01  -9.0617258272E+00   2.9099236815E+01   1.0500000000E-01     0.000   1.
13    1    9    0    0    0  -1.0217439703E+01  -8.9774271296E+00   4.0950143333E+00   1.4204592192E+01   1.0500000000E-01     0.000  -1.
-13    1    9    0    0    0  -1.5347952550E+01  -1.3279030741E+01   6.0812399107E+00   2.1186901820E+01   1.0500000000E-01     0.000   1.
</event>
<event>
 13   1  9.2978750E-05  1.2500000E+02  7.5467720E-03  1.2380620E-01
   21   -1    0    0  502  501   0.0000000000E+00   0.0000000000E+00   1.3187075862E+02   1.3187075862E+02   0.0000000000E+00     0.000   1.
   21   -1    0    0  501  502   0.0000000000E+00   0.0000000000E+00  -2.9621805781E+01   2.9621805781E+01   0.0000000000E+00     0.000   1.
   25    2    1    2    0    0   0.0000000000E+00   0.0000000000E+00   1.0224895284E+02   1.6149256440E+02   1.2500000000E+02  3.118E-08  -1.
3000002    2    3    0    0    0  -5.5267908081E+01  -1.8982669043E+01   2.5566032776E+01   6.4563963784E+01   1.0000000000E+01  9.402E-10   1.
3000002    2    3    0    0    0   5.5267908081E+01   1.8982669043E+01   7.6682920064E+01   9.6928600616E+01   1.0000000000E+01  3.137E-11   1.
3000001    1    4    0    0    0  -1.5411700120E+00   5.3122991255E-01  -7.7666460456E-02   1.9140120964E+00   1.0000000000E+00     0.000  -1.
3000022   2   4   0   0   0   -5.3726738069E+01   -1.9513898956E+01   2.5643699236E+01   6.2649951688E+01   2.5000000000E-01   7.449139E+00   0.
3000001    1    5    0    0    0   4.8055793756E+01   1.5469008159E+01   6.0032502246E+01   7.8444571851E+01   1.0000000000E+00     0.000   1.
3000022   2   5   0   0   0   7.2121143254E+00   3.5136608845E+00   1.6650417818E+01   1.8484028765E+01   2.5000000000E-01   2.235499E+00   0.
13    1    7    0    0    0  -2.8299852204E+01  -1.0350267393E+01   1.3512673660E+01   3.3024431022E+01   1.0500000000E-01     0.000  -1.
-13    1    7    0    0    0  -2.5426885865E+01  -9.1636315628E+00   1.2131025576E+01   2.9625520666E+01   1.0500000000E-01     0.000   1.
13    1    9    0    0    0   2.1964334437E+00   1.0267054464E+00   5.0927074628E+00   5.6413773361E+00   1.0500000000E-01     0.000  -1.
-13    1    9    0    0    0   5.0156808817E+00   2.4869554381E+00   1.1557710355E+01   1.2842651429E+01   1.0500000000E-01     0.000   1.
</event>
<event>
 13   1  9.2978750E-05  1.2500000E+02  7.5467720E-03  1.2380620E-01
   21   -1    0    0  502  501   0.0000000000E+00   0.0000000000E+00   2.4596194390E+01   2.4596194390E+01   0.0000000000E+00     0.000   1.
   21   -1    0    0  501  502   0.0000000000E+00   0.0000000000E+00  -1.5881521906E+02   1.5881521906E+02   0.0000000000E+00     0.000   1.
   25    2    1    2    0    0   0.0000000000E+00   0.0000000000E+00  -1.3421902467E+02   1.8341141345E+02   1.2500000000E+02  6.748E-08  -1.
3000002    2    3    0    0    0   3.8310406816E+01   3.0406921518E+01  -1.1935030567E+01   5.1329456468E+01   1.0000000000E+01  1.762E-10  -1.
3000002    2    3    0    0    0  -3.8310406816E+01  -3.0406921518E+01  -1.2228399410E+02   1.3208195698E+02   1.0000000000E+01  4.714E-10  -1.
3000001    1    4    0    0    0   7.8593568130E+00   9.4872616340E+00  -6.5657583733E+00   1.3995956768E+01   1.0000000000E+00     0.000  -1.
3000022   2   4   0   0   0   3.0451050003E+01   2.0919659884E+01   -5.3692721940E+00   3.7333499700E+01   2.5000000000E-01   2.527931E+00   0.
3000001    1    5    0    0    0  -1.5418508558E+01  -1.5400411727E+01  -4.3221040727E+01   4.8414475615E+01   1.0000000000E+00     0.000   1.
3000022   2   5   0   0   0   -2.2891898257E+01   -1.5006509792E+01   -7.9062953375E+01   8.3667481368E+01   2.5000000000E-01   3.388808E+00   0.
13    1    7    0    0    0   1.7111133365E+01   1.1740499084E+01  -3.0814906226E+00   2.0979437867E+01   1.0500000000E-01     0.000  -1.
-13    1    7    0    0    0   1.3339916638E+01   9.1791608001E+00  -2.2877815715E+00   1.6354061833E+01   1.0500000000E-01     0.000   1.
13    1    9    0    0    0  -1.4784040775E+01  -9.6231098802E+00  -5.0936030887E+01   5.3904196246E+01   1.0500000000E-01     0.000   1.
-13    1    9    0    0    0  -8.1078574819E+00  -5.3833999116E+00  -2.8126922488E+01   2.9763285121E+01   1.0500000000E-01     0.000  -1.
</event>
<event>
 13   1  9.2978750E-05  1.2500000E+02  7.5467720E-03  1.2380620E-01
   21   -1    0    0  502  501   0.0000000000E+00   0.0000000000E+00   1.3590871694E+02   1.3590871694E+02   0.0000000000E+00     0.000   1.
   21   -1    0    0  501  502   0.0000000000E+00   0.0000000000E+00  -2.8741717881E+01   2.8741717881E+01   0.0000000000E+00     0.000   1.
   25    2    1    2    0    0   0.0000000000E+00   0.0000000000E+00   1.0716699906E+02   1.6465043483E+02   1.2500000000E+02  1.115E-07  -1.
3000002    2    3    0    0    0  -5.7283266923E+01  -1.3137447664E+01   7.8306422830E+01   9.8416772234E+01   1.0000000000E+01  2.912E-10  -1.
3000002    2    3    0    0    0   5.7283266923E+01   1.3137447664E+01   2.8860576230E+01   6.6233662596E+01   1.0000000000E+01  1.492E-09  -1.
3000001    1    4    0    0    0  -3.1171181188E+01  -1.0775792715E+01   3.7927691143E+01   5.0271960382E+01   1.0000000000E+00     0.000   1.
3000022   2   4   0   0   0   -2.6112085736E+01   -2.3616549495E+00   4.0378731687E+01   4.8144811851E+01   2.5000000000E-01   3.404554E+00   0.
3000001    1    5    0    0    0   3.9750078621E+01   5.5793075063E+00   2.2935175303E+01   4.6240887630E+01   1.0000000000E+00     0.000  -1.
3000022   2   5   0   0   0   1.7533188302E+01   7.5581401580E+00   5.9254009268E+00   1.9992774966E+01   2.5000000000E-01   4.173312E+00   0.
13    1    7    0    0    0  -1.2711185790E+01  -1.1682516265E+00   1.9778364922E+01   2.3540046730E+01   1.0500000000E-01     0.000  -1.
-13    1    7    0    0    0  -1.3400899946E+01  -1.1934033230E+00   2.0600366765E+01   2.4604765122E+01   1.0500000000E-01     0.000   1.
13    1    9    0    0    0   1.0759314053E+01   4.5760933524E+00   3.6034126417E+00   1.2235157413E+01   1.0500000000E-01     0.000   1.
-13    1    9    0    0    0   6.7738742495E+00   2.9820468056E+00   2.3219882851E+00   7.7576175527E+00   1.0500000000E-01     0.000  -1.
</event>
<event>
 13   1  9.2978750E-05  1.2500000E+02  7.5467720E-03  1.2380620E-01
   21   -1    0    0  502  501   0.0000000000E+00   0.0000000000E+00   7.9025920426E+01   7.9025920426E+01   0.0000000000E+00     0.000   1.
   21   -1    0    0  501  502   0.0000000000E+00   0.0000000000E+00  -4.9429984225E+01   4.9429984225E+01   0.0000000000E+00     0.000   1.
   25    2    1    2    0    0   0.0000000000E+00   0.0000000000E+00   2.9595936202E+01   1.2845590465E+02   1.2500000000E+02  3.066E-08  -1.
3000002    2    3    0    0    0   2.7469845402E+01   4.9884929173E+01   3.9184871420E+01   6.9846637093E+01   1.0000000000E+01  1.415E-09  -1.
3000002    2    3    0    0    0  -2.7469845402E+01  -4.9884929173E+01  -9.5889352178E+00   5.8609267557E+01   1.0000000000E+01  2.120E-10  -1.
3000001    1    4    0    0    0   2.2730468683E+01   4.5150641387E+01   3.1159985471E+01   5.9390229152E+01   1.0000000000E+00     0.000  -1.
3000022   2   4   0   0   0   4.7393767198E+00   4.7342877856E+00   8.0248859491E+00   1.0456407941E+01   2.5000000000E-01   1.498773E+01   0.
3000001    1    5    0    0    0  -1.4330910911E+01  -3.0497850896E+01  -1.0067831737E+01   3.5183165757E+01   1.0000000000E+00     0.000  -1.
3000022   2   5   0   0   0   -1.3138934491E+01   -1.9387078276E+01   4.7889651915E-01   2.3426101800E+01   2.5000000000E-01   1.035875E+00   0.
13    1    7    0    0    0   2.7536409043E+00   2.8239441496E+00   4.6647760540E+00   6.1096938895E+00   1.0500000000E-01     0.000  -1.
-13    1    7    0    0    0   1.9857358156E+00   1.9103436360E+00   3.3601098951E+00   4.3467140513E+00   1.0500000000E-01     0.000   1.
13    1    9    0    0    0  -4.8268506724E+00  -7.1154579990E+00   1.1680152440E-01   8.5995870566E+00   1.0500000000E-01     0.000   1.
-13    1    9    0    0    0  -8.3120838189E+00  -1.2271620277E+01   3.6209499474E-01   1.4826514743E+01   1.0500000000E-01     0.000  -1.
</event>
<event>
 13   1  9.2978750E-05  1.2500000E+02  7.5467720E-03  1.2380620E-01
   21   -1    0    0  502  501   0.0000000000E+00   0.0000000000E+00   1.3587705181E+02   1.3587705181E+02   0.0000000000E+00     0.000   1.
   21   -1    0    0  501  502   0.0000000000E+00   0.0000000000E+00  -2.8748415925E+01   2.8748415925E+01   0.0000000000E+00     0.000   1.
   25    2    1    2    0    0   0.0000000000E+00   0.0000000000E+00   1.0712863588E+02   1.6462546773E+02   1.2500000000E+02  3.840E-08  -1.
3000002    2    3    0    0    0  -1.5440308434E+01  -5.9654334424E+01   5.7560563871E+01   8.4913257230E+01   1.0000000000E+01  4.436E-10   1.
3000002    2    3    0    0    0   1.5440308434E+01   5.9654334424E+01   4.9568072009E+01   7.9712210500E+01   1.0000000000E+01  5.722E-10   1.
3000001    1    4    0    0    0  -3.0262503206E+00  -5.4891065943E+00   9.5992800039E+00   1.1508025843E+01   1.0000000000E+00     0.000  -1.
3000022   2   4   0   0   0   -1.2414058114E+01   -5.4165227830E+01   4.7961283867E+01   7.3405231387E+01   2.5000000000E-01   7.512220E+00   0.
3000001    1    5    0    0    0   1.3030104917E+01   3.3683030764E+01   2.5512955860E+01   4.4229414560E+01   1.0000000000E+00     0.000   1.
3000022   2   5   0   0   0   2.4102035176E+00   2.5971303660E+01   2.4055116149E+01   3.5482795940E+01   2.5000000000E-01   1.298282E+01   0.
13    1    7    0    0    0  -5.5403970491E+00  -2.4387772717E+01   2.1523633914E+01   3.2996019448E+01   1.0500000000E-01     0.000  -1.
-13    1    7    0    0    0  -6.8736610648E+00  -2.9777455113E+01   2.6437649953E+01   4.0409211938E+01   1.0500000000E-01     0.000   1.
13    1    9    0    0    0   1.7186692807E+00   1.8764646909E+01   1.7420661671E+01   2.5662351330E+01   1.0500000000E-01     0.000  -1.
-13    1    9    0    0    0   6.9153423682E-01   7.2066567506E+00   6.6344544780E+00   9.8204446102E+00   1.0500000000E-01     0.000   1.
</event>
<event>
 13   1  9.2978750E-05  1.2500000E+02  7.5467720E-03  1.2380620E-01
   21   -1    0    0  502  501   0.0000000000E+00   0.0000000000E+00   4.5905055744E+02   4.5905055744E+02   0.0000000000E+00     0.000   1.
   21   -1    0    0  501  502   0.0000000000E+00   0.0000000000E+00  -8.5094112984E+00   8.5094112984E+00   0.0000000000E+00     0.000   1.
   25    2    1    2    0    0   0.0000000000E+00   0.0000000000E+00   4.5054114614E+02   4.6755996874E+02   1.2500000000E+02  2.203E-08  -1.
3000002    2    3    0    0    0   1.9559008138E+01   2.0046375974E+01   4.3088940979E+02   4.3191445387E+02   1.0000000000E+01  3.233E-09   1.
3000002    2    3    0    0    0  -1.9559008138E+01  -2.0046375974E+01   1.9651736349E+01   3.5645514873E+01   1.0000000000E+01  1.425E-11   1.
3000001    1    4    0    0    0   1.5752339204E+01   1.4861774695E+01   3.8025905146E+02   3.8087656105E+02   1.0000000000E+00     0.000  -1.
3000022   2   4   0   0   0   3.8066689340E+00   5.1846012789E+00   5.0630358331E+01   5.1037892820E+01   2.5000000000E-01   1.112860E+00   0.
3000001    1    5    0    0    0  -1.5749698756E+00  -6.1895055874E+00   1.6540530097E+00   6.6728105686E+00   1.0000000000E+00     0.000  -1.
3000022   2   5   0   0   0   -1.7984038262E+01   -1.3856870387E+01   1.7997683339E+01   2.8972704304E+01   2.5000000000E-01   1.663377E+00   0.
13    1    7    0    0    0   1.2069727734E+00   1.7043390941E+00   1.6747043381E+01   1.6877086301E+01   1.0500000000E-01     0.000   1.
-13    1    7    0    0    0   2.5996961605E+00   3.4802621848E+00   3.3883314951E+01   3.4160806519E+01   1.0500000000E-01     0.000  -1.
13    1    9    0    0    0  -1.3460363503E+01  -1.0403889751E+01   1.3494803546E+01   2.1715042145E+01   1.0500000000E-01     0.000   1.
-13    1    9    0    0    0  -4.5236747589E+00  -3.4529806354E+00   4.5028797925E+00   7.2576621593E+00   1.0500000000E-01     0.000  -1.
</event>
<event>
 13   1  9.2978750E-05  1.2500000E+02  7.5467720E-03  1.2380620E-01
   21   -1    0    0  502  501   0.0000000000E+00   0.0000000000E+00   4.2499858457E+01   4.2499858457E+01   0.0000000000E+00     0.000   1.
   21   -1    0    0  501  502   0.0000000000E+00   0.0000000000E+00  -9.1912070811E+01   9.1912070811E+01   0.0000000000E+00     0.000   1.
   25    2    1    2    0    0   0.0000000000E+00   0.0000000000E+00  -4.9412212354E+01   1.3441192927E+02   1.2500000000E+02  3.584E-08  -1.
3000002    2    3    0    0    0   2.2095372486E+01   3.0482659290E+01  -7.7262120649E+01   8.6526488949E+01   1.0000000000E+01  2.665E-09  -1.
3000002    2    3    0    0    0  -2.2095372486E+01  -3.0482659290E+01   2.7849908295E+01   4.7885440321E+01   1.0000000000E+01  1.354E-09  -1.
3000001    1    4    0    0    0   1.7399975450E+01   2.0183745455E+01  -6.2268886139E+01   6.7738887703E+01   1.0000000000E+00     0.000  -1.
3000022   2   4   0   0   0   4.6953970358E+00   1.0298913835E+01   -1.4993234510E+01   1.8787601246E+01   2.5000000000E-01   9.767810E-01   0.
3000001    1    5    0    0    0  -1.4453922888E+01  -2.1263422327E+01   2.4305457654E+01   3.5394975458E+01   1.0000000000E+00     0.000   1.
3000022   2   5   0   0   0   -7.6414495980E+00   -9.2192369633E+00   3.5444506408E+00   1.2490464863E+01   2.5000000000E-01   1.410664E+01   0.
13    1    7    0    0    0   2.8615857284E+00   6.1523239348E+00  -8.9266407800E+00   1.1213193269E+01   1.0500000000E-01     0.000  -1.
-13    1    7    0    0    0   1.8338113074E+00   4.1465899006E+00  -6.0665937298E+00   7.5744079767E+00   1.0500000000E-01     0.000   1.
13    1    9    0    0    0  -4.8625763836E+00  -5.8187976245E+00   2.1916172847E+00   7.8941285905E+00   1.0500000000E-01     0.000  -1.
-13    1    9    0    0    0  -2.7788732144E+00  -3.4004393389E+00   1.3528333562E+00   4.5963362723E+00   1.0500000000E-01     0.000   1.
</event>
<event>
 13   1  9.2978750E-05  1.2500000E+02  7.5467720E-03  1.2380620E-01
   21   -1    0    0  502  501   0.0000000000E+00   0.0000000000E+00   7.0266940653E+01   7.0266940653E+01   0.0000000000E+00     0.000  -1.
   21   -1    0    0  501  502   0.0000000000E+00   0.0000000000E+00  -5.5591576404E+01   5.5591576404E+01   0.0000000000E+00     0.000  -1.
   25    2    1    2    0    0   0.0000000000E+00   0.0000000000E+00   1.4675364250E+01   1.2585851706E+02   1.2500000000E+02  2.154E-08  -1.
3000002    2    3    0    0    0  -2.9442933775E+01   5.3359585267E+01   1.7001429771E+01   6.4056071558E+01   1.0000000000E+01  5.328E-10   1.
3000002    2    3    0    0    0   2.9442933775E+01  -5.3359585267E+01  -2.3260655212E+00   6.1802445502E+01   1.0000000000E+01  1.325E-10   1.
3000001    1    4    0    0    0  -1.3370056287E+01   1.8029150428E+01   2.4436232573E+00   2.2600441697E+01   1.0000000000E+00     0.000   1.
3000022   2   4   0   0   0   -1.6072877488E+01   3.5330434839E+01   1.4557806514E+01   4.1455629861E+01   2.5000000000E-01   4.507545E-01   0.
3000001    1    5    0    0    0   2.3924228380E+01  -4.3188637750E+01   2.0586492214E+00   4.9425349477E+01   1.0000000000E+00     0.000   1.
3000022   2   5   0   0   0   5.5187053949E+00   -1.0170947517E+01   -4.3847147426E+00   1.2377096025E+01   2.5000000000E-01   3.891837E+00   0.
13    1    7    0    0    0  -1.1759736659E+01   2.5763143041E+01   1.0626882973E+01   3.0248514218E+01   1.0500000000E-01     0.000   1.
-13    1    7    0    0    0  -4.3131408289E+00   9.5672917980E+00   3.9309235405E+00   1.1207115643E+01   1.0500000000E-01     0.000  -1.
13    1    9    0    0    0   2.9822122933E+00  -5.4598771264E+00  -2.2878520780E+00   6.6294147953E+00   1.0500000000E-01     0.000  -1.
-13    1    9    0    0    0   2.5364931016E+00  -4.7110703910E+00  -2.0968626646E+00   5.7476812297E+00   1.0500000000E-01     0.000   1.
</event>
<event>
 13   1  9.2978750E-05  1.2500000E+02  7.5467720E-03  1.2380620E-01
   21   -1    0    0  502  501   0.0000000000E+00   0.0000000000E+00   3.0119888568E+02   3.0119888568E+02   0.0000000000E+00     0.000  -1.
   21   -1    0    0  501  502   0.0000000000E+00   0.0000000000E+00  -1.2969005484E+01   1.2969005484E+01   0.0000000000E+00     0.000  -1.
   25    2    1    2    0    0   0.0000000000E+00   0.0000000000E+00   2.8822988019E+02   3.1416789116E+02   1.2500000000E+02  1.571E-07  -1.
3000002    2    3    0    0    0  -3.3668451684E+01   3.6976062685E+01   2.3492478378E+02   2.4039643900E+02   1.0000000000E+01  6.951E-10   1.
3000002    2    3    0    0    0   3.3668451684E+01  -3.6976062685E+01   5.3305096415E+01   7.3771452163E+01   1.0000000000E+01  3.330E-10   1.
3000001    1    4    0    0    0  -9.1605354196E+00   4.3832784048E+00   4.9300935827E+01   5.0345911573E+01   1.0000000000E+00     0.000  -1.
3000022   2   4   0   0   0   -2.4507916265E+01   3.2592784280E+01   1.8562384795E+02   1.9005052742E+02   2.5000000000E-01   4.373631E+00   0.
3000001    1    5    0    0    0   2.0862418043E+01  -2.7342753532E+01   3.1050238823E+01   4.6346348166E+01   1.0000000000E+00     0.000  -1.
3000022   2   5   0   0   0   1.2806033642E+01   -9.6333091524E+00   2.2254857591E+01   2.7425103997E+01   2.5000000000E-01   5.099194E-01   0.
13    1    7    0    0    0  -1.4393717913E+01   1.9236113406E+01   1.0950050006E+02   1.1210520824E+02   1.0500000000E-01     0.000   1.
-13    1    7    0    0    0  -1.0114198352E+01   1.3356670874E+01   7.6123347885E+01   7.7945319189E+01   1.0500000000E-01     0.000  -1.
13    1    9    0    0    0   6.1349385958E+00  -4.6928919754E+00   1.0681265091E+01   1.3181849476E+01   1.0500000000E-01     0.000   1.
-13    1    9    0    0    0   6.6710950458E+00  -4.9404171770E+00   1.1573592501E+01   1.4243254522E+01   1.0500000000E-01     0.000  -1.
</event>
<event>
 13   1  9.2978750E-05  1.2500000E+02  7.5467720E-03  1.2380620E-01
   21   -1    0    0  502  501   0.0000000000E+00   0.0000000000E+00   8.1460882991E+01   8.1460882991E+01   0.0000000000E+00     0.000   1.
   21   -1    0    0  501  502   0.0000000000E+00   0.0000000000E+00  -4.7952463275E+01   4.7952463275E+01   0.0000000000E+00     0.000   1.
   25    2    1    2    0    0   0.0000000000E+00   0.0000000000E+00   3.3508419715E+01   1.2941334627E+02   1.2500000000E+02  2.193E-08  -1.
3000002    2    3    0    0    0  -4.3503735516E+01   5.8783164103E+00   6.1633539036E+01   7.6327077382E+01   1.0000000000E+01  1.051E-10   1.
3000002    2    3    0    0    0   4.3503735516E+01  -5.8783164103E+00  -2.8125119321E+01   5.3086268888E+01   1.0000000000E+01  1.556E-10   1.
3000001    1    4    0    0    0  -2.3481393257E+01   4.2657483146E+00   2.5197720944E+01   3.4720276190E+01   1.0000000000E+00     0.000   1.
3000022   2   4   0   0   0   -2.0022342259E+01   1.6125680957E+00   3.6435818092E+01   4.1606801192E+01   2.5000000000E-01   2.302900E+00   0.
3000001    1    5    0    0    0   2.9994282729E+01   1.0761758364E-01  -2.1339822628E+01   3.6824673899E+01   1.0000000000E+00     0.000   1.
3000022   2   5   0   0   0   1.3509452787E+01   -5.9859339939E+00   -6.7852966924E+00   1.6261594989E+01   2.5000000000E-01   1.374698E+01   0.
13    1    7    0    0    0  -1.5241428791E+01   1.2148153979E+00   2.7704821768E+01   3.1644037389E+01   1.0500000000E-01     0.000   1.
-13    1    7    0    0    0  -4.7809134672E+00   3.9775269779E-01   8.7309963238E+00   9.9627638030E+00   1.0500000000E-01     0.000  -1.
13    1    9    0    0    0   7.1327098335E+00  -3.0907363656E+00  -3.5939654805E+00   8.5648008574E+00   1.0500000000E-01     0.000   1.
-13    1    9    0    0    0   6.3767429532E+00  -2.8951976283E+00  -3.1913312119E+00   7.6967941314E+00   1.0500000000E-01     0.000  -1.
</event>
<event>
 13   1  9.2978750E-05  1.2500000E+02  7.5467720E-03  1.2380620E-01
   21   -1    0    0  502  501   0.0000000000E+00   0.0000000000E+00   1.3856309392E+01   1.3856309392E+01   0.0000000000E+00     0.000   1.
   21   -1    0    0  501  502   0.0000000000E+00   0.0000000000E+00  -2.8191128600E+02   2.8191128600E+02   0.0000000000E+00     0.000   1.
   25    2    1    2    0    0   0.0000000000E+00   0.0000000000E+00  -2.6805497661E+02   2.9576759540E+02   1.2500000000E+02  1.250E-08  -1.
3000002    2    3    0    0    0   5.5431469569E+01  -1.8517409353E+01  -8.7257573263E+01   1.0549609642E+02   1.0000000000E+01  3.757E-10   1.
3000002    2    3    0    0    0  -5.5431469569E+01   1.8517409353E+01  -1.8079740335E+02   1.9027149898E+02   1.0000000000E+01  1.270E-09   1.
3000001    1    4    0    0    0   2.9503623396E+00   5.0373225306E-01  -7.5705857806E+00   8.2019603254E+00   1.0000000000E+00     0.000  -1.
3000022   2   4   0   0   0   5.2481107229E+01   -1.9021141607E+01   -7.9686987482E+01   9.7294136093E+01   2.5000000000E-01   5.837536E+00   0.
3000001    1    5    0    0    0  -4.1496454939E+01   1.5463851916E+01  -1.2279536716E+02   1.3054037186E+02   1.0000000000E+00     0.000   1.
3000022   2   5   0   0   0   -1.3935014630E+01   3.0535574370E+00   -5.8002036186E+01   5.9731127124E+01   2.5000000000E-01   9.333622E-01   0.
13    1    7    0    0    0   1.5253415986E+01  -5.5627358313E+00  -2.3127655463E+01   2.8257922808E+01   1.0500000000E-01     0.000  -1.
-13    1    7    0    0    0   3.7227691243E+01  -1.3458405775E+01  -5.6559332019E+01   6.9036213285E+01   1.0500000000E-01     0.000   1.
13    1    9    0    0    0  -9.7365261329E+00   2.1524567334E+00  -4.0716342075E+01   4.1919739361E+01   1.0500000000E-01     0.000  -1.
-13    1    9    0    0    0  -4.1984884970E+00   9.0110070362E-01  -1.7285694111E+01   1.7811387763E+01   1.0500000000E-01     0.000   1.
</event>
<event>
 13   1  9.2978750E-05  1.2500000E+02  7.5467720E-03  1.2380620E-01
   21   -1    0    0  502  501   0.0000000000E+00   0.0000000000E+00   3.5839207558E+02   3.5839207558E+02   0.0000000000E+00     0.000  -1.
   21   -1    0    0  501  502   0.0000000000E+00   0.0000000000E+00  -1.0899376036E+01   1.0899376036E+01   0.0000000000E+00     0.000  -1.
   25    2    1    2    0    0   0.0000000000E+00   0.0000000000E+00   3.4749269955E+02   3.6929145162E+02   1.2500000000E+02  4.697E-08  -1.
3000002    2    3    0    0    0  -1.8002855797E+01  -5.2061602955E+01   2.5581812230E+02   2.6187291768E+02   1.0000000000E+01  8.805E-10  -1.
3000002    2    3    0    0    0   1.8002855797E+01   5.2061602955E+01   9.1674577253E+01   1.0741853394E+02   1.0000000000E+01  5.170E-10  -1.
3000001    1    4    0    0    0  -3.6800206501E+00  -4.5458265739E+00   1.8772891967E+01   1.9688284944E+01   1.0000000000E+00     0.000   1.
3000022   2   4   0   0   0   -1.4322835147E+01   -4.7515776381E+01   2.3704523033E+02   2.4218463274E+02   2.5000000000E-01   9.735439E-01   0.
3000001    1    5    0    0    0   3.4464508212E-01   2.9947465735E+00   1.0210019737E+01   1.0692604468E+01   1.0000000000E+00     0.000   1.
3000022   2   5   0   0   0   1.7658210715E+01   4.9066856382E+01   8.1464557516E+01   9.6725929471E+01   2.5000000000E-01   7.477282E+00   0.
13    1    7    0    0    0  -8.8919616533E+00  -2.9692950477E+01   1.4794132481E+02   1.5115351435E+02   1.0500000000E-01     0.000  -1.
-13    1    7    0    0    0  -5.4308734941E+00  -1.7822825904E+01   8.9103905521E+01   9.1031118384E+01   1.0500000000E-01     0.000   1.
13    1    9    0    0    0   1.0475291926E+01   2.9110463397E+01   4.8448838824E+01   5.7484361600E+01   1.0500000000E-01     0.000   1.
-13    1    9    0    0    0   7.1829187893E+00   1.9956392985E+01   3.3015718691E+01   3.9241567871E+01   1.0500000000E-01     0.000  -1.
</event>
<event>
 13   1  9.2978750E-05  1.2500000E+02  7.5467720E-03  1.2380620E-01
   21   -1    0    0  502  501   0.0000000000E+00   0.0000000000E+00   1.0148847352E+02   1.0148847352E+02   0.0000000000E+00     0.000  -1.
   21   -1    0    0  501  502   0.0000000000E+00   0.0000000000E+00  -3.8489592606E+01   3.8489592606E+01   0.0000000000E+00     0.000  -1.
   25    2    1    2    0    0   0.0000000000E+00   0.0000000000E+00   6.2998880913E+01   1.3997806613E+02   1.2500000000E+02  1.295E-07  -1.
3000002    2    3    0    0    0   5.1149596928E+01   1.5096847405E+01  -3.2341505300E+00   5.4356745645E+01   1.0000000000E+01  4.427E-11  -1.
3000002    2    3    0    0    0  -5.1149596928E+01  -1.5096847405E+01   6.6233031443E+01   8.5621320485E+01   1.0000000000E+01  5.053E-10  -1.
3000001    1    4    0    0    0   1.4367877763E+01   8.7468685409E+00   3.8514003303E-01   1.6855027545E+01   1.0000000000E+00     0.000  -1.
3000022   2   4   0   0   0   3.6781719165E+01   6.3499788645E+00   -3.6192905631E+00   3.7501718100E+01   2.5000000000E-01   3.214905E+00   0.
3000001    1    5    0    0    0  -3.1830186254E+01  -1.0739637300E+01   4.8692007760E+01   5.9164281336E+01   1.0000000000E+00     0.000   1.
3000022   2   5   0   0   0   -1.9319410674E+01   -4.3572101051E+00   1.7541023683E+01   2.6457039149E+01   2.5000000000E-01   2.777937E+00   0.
13    1    7    0    0    0   1.7082269641E+01   2.9804959002E+00  -1.7413746189E+00   1.7427871427E+01   1.0500000000E-01     0.000   1.
-13    1    7    0    0    0   1.9699449524E+01   3.3694829643E+00  -1.8779159442E+00   2.0073846674E+01   1.0500000000E-01     0.000  -1.
13    1    9    0    0    0  -1.0471677543E+01  -2.2930206966E+00   9.4931352895E+00   1.4319379075E+01   1.0500000000E-01     0.000  -1.
-13    1    9    0    0    0  -8.8477331309E+00  -2.0641894085E+00   8.0478883935E+00   1.2137660074E+01   1.0500000000E-01     0.000   1.
</event>
<event>
 13   1  9.2978750E-05  1.2500000E+02  7.5467720E-03  1.2380620E-01
   21   -1    0    0  502  501   0.0000000000E+00   0.0000000000E+00   2.7450845760E+02   2.7450845760E+02   0.0000000000E+00     0.000  -1.
   21   -1    0    0  501  502   0.0000000000E+00   0.0000000000E+00  -1.4229980505E+01   1.4229980505E+01   0.0000000000E+00     0.000  -1.
   25    2    1    2    0    0   0.0000000000E+00   0.0000000000E+00   2.6027847709E+02   2.8873843810E+02   1.2500000000E+02  6.404E-09  -1.
3000002    2    3    0    0    0  -2.0784005117E+01   3.5271076539E+01   2.3526902367E+01   4.8265296476E+01   1.0000000000E+01  3.591E-10  -1.
3000002    2    3    0    0    0   2.0784005117E+01  -3.5271076539E+01   2.3675157472E+02   2.4047314162E+02   1.0000000000E+01  9.963E-11  -1.
3000001    1    4    0    0    0  -1.1181887973E+01   1.3510880241E+01   5.4583976383E+00   1.8394907129E+01   1.0000000000E+00     0.000   1.
3000022   2   4   0   0   0   -9.6021171439E+00   2.1760196298E+01   1.8068504729E+01   2.9870389346E+01   2.5000000000E-01   5.660563E+00   0.
3000001    1    5    0    0    0   5.8106002057E+00  -1.9287301470E+01   1.2050211068E+02   1.2217823763E+02   1.0000000000E+00     0.000   1.
3000022   2   5   0   0   0   1.4973404911E+01   -1.5983775069E+01   1.1624946405E+02   1.1829490399E+02   2.5000000000E-01   7.768599E+00   0.
13    1    7    0    0    0  -4.1460683499E+00   9.2730992755E+00   7.7701351933E+00   1.2789303298E+01   1.0500000000E-01     0.000   1.
-13    1    7    0    0    0  -5.4560487940E+00   1.2487097022E+01   1.0298369535E+01   1.7081086048E+01   1.0500000000E-01     0.000  -1.
13    1    9    0    0    0   5.5697077439E+00  -5.9925650765E+00   4.3152146311E+01   4.3920965800E+01   1.0500000000E-01     0.000   1.
-13    1    9    0    0    0   9.4036971672E+00  -9.9912099921E+00   7.3097317734E+01   7.4373938194E+01   1.0500000000E-01     0.000  -1.
</event>
<event>
 13   1  9.2978750E-05  1.2500000E+02  7.5467720E-03  1.2380620E-01
   21   -1    0    0  502  501   0.0000000000E+00   0.0000000000E+00   4.7264067064E+01   4.7264067064E+01   0.0000000000E+00     0.000   1.
   21   -1    0    0  501  502   0.0000000000E+00   0.0000000000E+00  -8.2647352263E+01   8.2647352263E+01   0.0000000000E+00     0.000   1.
   25    2    1    2    0    0   0.0000000000E+00   0.0000000000E+00  -3.5383285200E+01   1.2991141933E+02   1.2500000000E+02  4.421E-09  -1.
3000002    2    3    0    0    0  -3.7415931284E+01   4.5545412776E+01   1.2426789327E+00   5.9798668796E+01   1.0000000000E+01  3.775E-10  -1.
3000002    2    3    0    0    0   3.7415931284E+01  -4.5545412776E+01  -3.6625964133E+01   7.0112750534E+01   1.0000000000E+01  4.197E-10  -1.
3000001    1    4    0    0    0  -1.1781108892E+01   1.9445232442E+01   4.0155780883E+00   2.3109228868E+01   1.0000000000E+00     0.000  -1.
3000022   2   4   0   0   0   -2.5634822392E+01   2.6100180334E+01   -2.7728991557E+00   3.6689439928E+01   2.5000000000E-01   3.977779E+00   0.
3000001    1    5    0    0    0   2.6601538632E+01  -3.8448595769E+01  -2.7132189656E+01   5.4065627618E+01   1.0000000000E+00     0.000  -1.
3000022   2   5   0   0   0   1.0814392653E+01   -7.0968170070E+00   -9.4937744764E+00   1.6047122916E+01   2.5000000000E-01   1.324383E+01   0.
13    1    7    0    0    0  -9.9182126267E+00   1.0058101104E+01  -1.0157812558E+00   1.4162597787E+01   1.0500000000E-01     0.000   1.
-13    1    7    0    0    0  -1.5716609765E+01   1.6042079230E+01  -1.7571178999E+00   2.2526842141E+01   1.0500000000E-01     0.000  -1.
13    1    9    0    0    0   3.2514405968E+00  -2.1080348655E+00  -2.7946904888E+00   4.7788070558E+00   1.0500000000E-01     0.000  -1.
-13    1    9    0    0    0   7.5629520558E+00  -4.9887821415E+00  -6.6990839877E+00   1.1268315860E+01   1.0500000000E-01     0.000   1.
</event>
<event>
 13   1  9.2978750E-05  1.2500000E+02  7.5467720E-03  1.2380620E-01
   21   -1    0    0  502  501   0.0000000000E+00   0.0000000000E+00   2.3504836940E+02   2.3504836940E+02   0.0000000000E+00     0.000  -1.
   21   -1    0    0  501  502   0.0000000000E+00   0.0000000000E+00  -1.6618919799E+01   1.6618919799E+01   0.0000000000E+00     0.000  -1.
   25    2    1    2    0    0   0.0000000000E+00   0.0000000000E+00   2.1842944960E+02   2.5166728920E+02   1.2500000000E+02  8.539E-08  -1.
3000002    2    3    0    0    0  -3.7418689391E+01  -2.8833195009E+01   1.8910997991E+02   1.9517708870E+02   1.0000000000E+01  1.199E-09  -1.
3000002    2    3    0    0    0   3.7418689391E+01   2.8833195009E+01   2.9319469691E+01   5.6490200505E+01   1.0000000000E+01  1.048E-10  -1.
3000001    1    4    0    0    0  -1.7893299614E+01  -7.9288530593E+00   8.2563102950E+01   8.4856955228E+01   1.0000000000E+00     0.000  -1.
3000022   2   4   0   0   0   -1.9525389776E+01   -2.0904341950E+01   1.0654687696E+02   1.1032013347E+02   2.5000000000E-01   1.176031E+00   0.
3000001    1    5    0    0    0   3.4051696097E+01   2.8198407854E+01   2.9311100723E+01   5.3054772058E+01   1.0000000000E+00     0.000  -1.
3000022   2   5   0   0   0   3.3669932939E+00   6.3478715551E-01   8.3689677064E-03   3.4354284468E+00   2.5000000000E-01   2.792810E-01   0.
13    1    7    0    0    0  -9.1148661308E+00  -9.8325839519E+00   4.9768069455E+01   5.1542528596E+01   1.0500000000E-01     0.000   1.
-13    1    7    0    0    0  -1.0410523645E+01  -1.1071757998E+01   5.6778807504E+01   5.8777604871E+01   1.0500000000E-01     0.000  -1.
13    1    9    0    0    0   1.8039905500E+00   3.0520778787E-01  -5.3431381461E-02   1.8334158313E+00   1.0500000000E-01     0.000   1.
-13    1    9    0    0    0   1.5630027439E+00   3.2957936764E-01   6.1800349168E-02   1.6020126155E+00   1.0500000000E-01     0.000  -1.
</event>
<event>
 13   1  9.2978750E-05  1.2500000E+02  7.5467720E-03  1.2380620E-01
   21   -1    0    0  502  501   0.0000000000E+00   0.0000000000E+00   6.5937779794E+00   6.5937779794E+00   0.0000000000E+00     0.000   1.
   21   -1    0    0  501  502   0.0000000000E+00   0.0000000000E+00  -5.9241454781E+02   5.9241454781E+02   0.0000000000E+00     0.000   1.
   25    2    1    2    0    0   0.0000000000E+00   0.0000000000E+00  -5.8582076983E+02   5.9900832579E+02   1.2500000000E+02  1.527E-08  -1.
3000002    2    3    0    0    0  -6.2421883581E+00   2.3410451680E+01  -2.1016623630E+01   3.3596318730E+01   1.0000000000E+01  6.928E-10  -1.
3000002    2    3    0    0    0   6.2421883581E+00  -2.3410451680E+01  -5.6480414620E+02   5.6541200706E+02   1.0000000000E+01  7.462E-10  -1.
3000001    1    4    0    0    0  -1.7918592701E+00   1.9210442108E+01  -1.9128883657E+01   2.7187608126E+01   1.0000000000E+00     0.000   1.
3000022   2   4   0   0   0   -4.4503290880E+00   4.2000095720E+00   -1.8877399728E+00   6.4087106036E+00   2.5000000000E-01   8.866393E-01   0.
3000001    1    5    0    0    0   5.0861490690E+00  -2.4220979223E+01  -5.3063273508E+02   5.3121052728E+02   1.0000000000E+00     0.000  -1.
3000022   2   5   0   0   0   1.1560392891E+00   8.1052754291E-01   -3.4171411116E+01   3.4201479784E+01   2.5000000000E-01   1.811293E+00   0.
13    1    7    0    0    0  -2.5792532904E+00   2.4951800930E+00  -1.0580126488E+00   3.7428447734E+00   1.0500000000E-01     0.000  -1.
-13    1    7    0    0    0  -1.8710757976E+00   1.7048294790E+00  -8.2972732400E-01   2.6658658302E+00   1.0500000000E-01     0.000   1.
13    1    9    0    0    0   8.0846541694E-01   5.6421642767E-01  -2.2532986901E+01   2.2554788410E+01   1.0500000000E-01     0.000   1.
-13    1    9    0    0    0   3.4757387215E-01   2.4631111524E-01  -1.1638424215E+01   1.1646691374E+01   1.0500000000E-01     0.000  -1.
</event>
<event>
 13   1  9.2978750E-05  1.2500000E+02  7.5467720E-03  1.2380620E-01
   21   -1    0    0  502  501   0.0000000000E+00   0.0000000000E+00   6.7684740619E+02   6.7684740619E+02   0.0000000000E+00     0.000  -1.
   21   -1    0    0  501  502   0.0000000000E+00   0.0000000000E+00  -5.7712417367E+00   5.7712417367E+00   0.0000000000E+00     0.000  -1.
   25    2    1    2    0    0   0.0000000000E+00   0.0000000000E+00   6.7107616445E+02   6.8261864793E+02   1.2500000000E+02  1.207E-08  -1.
3000002    2    3    0    0    0   8.2045230742E+00  -3.1132406386E+01   6.2293705544E+02   6.2384863225E+02   1.0000000000E+01  1.308E-12   1.
3000002    2    3    0    0    0  -8.2045230742E+00   3.1132406386E+01   4.8139109015E+01   5.8770015680E+01   1.0000000000E+01  8.801E-10   1.
3000001    1    4    0    0    0   4.2348330390E+00  -2.8556619837E+01   5.4967168274E+02   5.5043017101E+02   1.0000000000E+00     0.000   1.
3000022   2   4   0   0   0   3.9696900352E+00   -2.5757865489E+00   7.3265372694E+01   7.3418461243E+01   2.5000000000E-01   9.464854E+00   0.
3000001    1    5    0    0    0  -7.0883518695E+00   1.5960742707E+01   1.8541059540E+01   2.5490408566E+01   1.0000000000E+00     0.000   1.
3000022   2   5   0   0   0   -1.1161712047E+00   1.5171663679E+01   2.9598049474E+01   3.3279607113E+01   2.5000000000E-01   1.730260E+00   0.
13    1    7    0    0    0   1.0907639547E+00  -6.7510634862E-01   2.0276610869E+01   2.0317418830E+01   1.0500000000E-01     0.000  -1.
-13    1    7    0    0    0   2.8789260805E+00  -1.9006802003E+00   5.2988761825E+01   5.3101042413E+01   1.0500000000E-01     0.000   1.
13    1    9    0    0    0  -7.5908307111E-01   9.5003049463E+00   1.8544481254E+01   2.0850439112E+01   1.0500000000E-01     0.000  -1.
-13    1    9    0    0    0  -3.5708813361E-01   5.6713587324E+00   1.1053568221E+01   1.2429168002E+01   1.0500000000E-01     0.000   1.
</event>
<event>
 13   1  9.2978750E-05  1.2500000E+02  7.5467720E-03  1.2380620E-01
   21   -1    0    0  502  501   0.0000000000E+00   0.0000000000E+00   4.7701642792E+01   4.7701642792E+01   0.0000000000E+00     0.000  -1.
   21   -1    0    0  501  502   0.0000000000E+00   0.0000000000E+00  -8.1889213271E+01   8.1889213271E+01   0.0000000000E+00     0.000  -1.
   25    2    1    2    0    0   0.0000000000E+00   0.0000000000E+00  -3.4187570479E+01   1.2959085606E+02   1.2500000000E+02  7.999E-09  -1.
3000002    2    3    0    0    0  -2.2541495647E+01  -3.7912151600E+01   2.7627488397E+01   5.2997437486E+01   1.0000000000E+01  8.113E-10  -1.
3000002    2    3    0    0    0   2.2541495647E+01   3.7912151600E+01  -6.1815058876E+01   7.6593418574E+01   1.0000000000E+01  6.215E-10  -1.
3000001    1    4    0    0    0  -2.1023530376E+01  -3.7823869156E+01   2.5097660645E+01   5.0035252345E+01   1.0000000000E+00     0.000  -1.
3000022   2   4   0   0   0   -1.5179652705E+00   -8.8282444371E-02   2.5298277523E+00   2.9621851409E+00   2.5000000000E-01   8.520436E+00   0.
3000001    1    5    0    0    0   9.6865513882E+00   2.4375605120E+01  -4.0453128264E+01   4.8222971591E+01   1.0000000000E+00     0.000  -1.
3000022   2   5   0   0   0   1.2854944259E+01   1.3536546481E+01   -2.1361930613E+01   2.8370446983E+01   2.5000000000E-01   1.123618E-01   0.
13    1    7    0    0    0  -7.0621440265E-01   2.5303554343E-02   1.1515981657E+00   1.3552056625E+00   1.0500000000E-01     0.000  -1.
-13    1    7    0    0    0  -8.1175086788E-01  -1.1358599871E-01   1.3782295866E+00   1.6069794784E+00   1.0500000000E-01     0.000   1.
13    1    9    0    0    0   7.3850575695E+00   7.7223338014E+00  -1.2145443231E+01   1.6177030967E+01   1.0500000000E-01     0.000  -1.
-13    1    9    0    0    0   5.4698866890E+00   5.8142126794E+00  -9.2164873820E+00   1.2193416016E+01   1.0500000000E-01     0.000   1.
</event>
<event>
 13   1  9.2978750E-05  1.2500000E+02  7.5467720E-03  1.2380620E-01
   21   -1    0    0  502  501   0.0000000000E+00   0.0000000000E+00   5.5386131025E+01   5.5386131025E+01   0.0000000000E+00     0.000   1.
   21   -1    0    0  501  502   0.0000000000E+00   0.0000000000E+00  -7.0527583851E+01   7.0527583851E+01   0.0000000000E+00     0.000   1.
   25    2    1    2    0    0   0.0000000000E+00   0.0000000000E+00  -1.5141452826E+01   1.2591371488E+02   1.2500000000E+02  7.066E-08  -1.
3000002    2    3    0    0    0  -3.9131247649E+01   4.4841539592E+01   8.8033025158E+00   6.0987837728E+01   1.0000000000E+01  5.500E-10   1.
3000002    2    3    0    0    0   3.9131247649E+01  -4.4841539592E+01  -2.3944755342E+01   6.4925877152E+01   1.0000000000E+01  3.920E-10   1.
3000001    1    4    0    0    0  -3.2830250447E+01   3.9071637311E+01   4.0401780366E+00   5.1202941567E+01   1.0000000000E+00     0.000   1.
3000022   2   4   0   0   0   -6.3009972022E+00   5.7699022812E+00   4.7631244792E+00   9.7848961610E+00   2.5000000000E-01   1.543287E+01   0.
3000001    1    5    0    0    0   8.2807138138E-01  -1.1935659109E+00   6.2383374864E-01   1.8706871311E+00   1.0000000000E+00     0.000   1.
3000022   2   5   0   0   0   3.8303176268E+01   -4.3647973681E+01   -2.4568589090E+01   6.3055190021E+01   2.5000000000E-01   6.904839E+00   0.
13    1    7    0    0    0  -4.6284164207E+00   4.2472687292E+00   3.5391531355E+00   7.2109749783E+00   1.0500000000E-01     0.000  -1.
-13    1    7    0    0    0  -1.6725807815E+00   1.5226335520E+00   1.2239713437E+00   2.5739211827E+00   1.0500000000E-01     0.000   1.
13    1    9    0    0    0   1.8626259677E+01  -2.1316927949E+01  -1.1943137245E+01   3.0724558890E+01   1.0500000000E-01     0.000   1.
-13    1    9    0    0    0   1.9676916591E+01  -2.2331045733E+01  -1.2625451845E+01   3.2330631131E+01   1.0500000000E-01     0.000  -1.
</event>
<event>
 13   1  9.2978750E-05  1.2500000E+02  7.5467720E-03  1.2380620E-01
   21   -1    0    0  502  501   0.0000000000E+00   0.0000000000E+00   8.3293289047E+01   8.3293289047E+01   0.0000000000E+00     0.000  -1.
   21   -1    0    0  501  502   0.0000000000E+00   0.0000000000E+00  -4.6897535740E+01   4.6897535740E+01   0.0000000000E+00     0.000  -1.
   25    2    1    2    0    0   0.0000000000E+00   0.0000000000E+00   3.6395753307E+01   1.3019082479E+02   1.2500000000E+02  3.807E-08  -1.
3000002    2    3    0    0    0   7.6839125582E+00  -4.1873315687E+01  -2.8308740088E+01   5.2094163245E+01   1.0000000000E+01  8.983E-11  -1.
3000002    2    3    0    0    0  -7.6839125582E+00   4.1873315687E+01   6.4704493395E+01   7.8096661545E+01   1.0000000000E+01  6.827E-10  -1.
3000001    1    4    0    0    0   1.4268440695E+00  -1.2145835123E+01  -3.1985182626E+00   1.2680209537E+01   1.0000000000E+00     0.000  -1.
3000022   2   4   0   0   0   6.2570684887E+00   -2.9727480565E+01   -2.5110221826E+01   3.9413953709E+01   2.5000000000E-01   7.474131E-01   0.
3000001    1    5    0    0    0   1.7396351697E+00   9.9503666926E+00   1.9193330783E+01   2.1712210260E+01   1.0000000000E+00     0.000   1.
3000022   2   5   0   0   0   -9.4235477279E+00   3.1922948995E+01   4.5511162613E+01   5.6384451284E+01   2.5000000000E-01   1.606095E+00   0.
13    1    7    0    0    0   4.8128764181E+00  -2.2859945131E+01  -1.9320451477E+01   3.0315536298E+01   1.0500000000E-01     0.000   1.
-13    1    7    0    0    0   1.4441920706E+00  -6.8675354340E+00  -5.7897703492E+00   9.0984174102E+00   1.0500000000E-01     0.000  -1.
13    1    9    0    0    0  -5.3052782195E+00   1.7758009820E+01   2.5295449399E+01   3.1358629993E+01   1.0500000000E-01     0.000  -1.
-13    1    9    0    0    0  -4.1182695084E+00   1.4164939175E+01   2.0215713214E+01   2.5025821291E+01   1.0500000000E-01     0.000   1.
</event>
<event>
 13   1  9.2978750E-05  1.2500000E+02  7.5467720E-03  1.2380620E-01
   21   -1    0    0  502  501   0.0000000000E+00   0.0000000000E+00   3.1807429979E+02   3.1807429979E+02   0.0000000000E+00     0.000   1.
   21   -1    0    0  501  502   0.0000000000E+00   0.0000000000E+00  -1.2280935626E+01   1.2280935626E+01   0.0000000000E+00     0.000   1.
   25    2    1    2    0    0   0.0000000000E+00   0.0000000000E+00   3.0579336416E+02   3.3035523542E+02   1.2500000000E+02  3.370E-08  -1.
3000002    2    3    0    0    0   1.2878375317E+01  -9.0489603397E+00   3.1055086787E+02   3.1111023411E+02   1.0000000000E+01  3.627E-11  -1.
3000002    2    3    0    0    0  -1.2878375317E+01   9.0489603397E+00  -4.7575037054E+00   1.9245001313E+01   1.0000000000E+01  1.754E-09  -1.
3000001    1    4    0    0    0   6.3448810525E+00  -6.7712732740E+00   2.4833197084E+02   2.4850729445E+02   1.0000000000E+00     0.000   1.
3000022   2   4   0   0   0   6.5334942647E+00   -2.2776870657E+00   6.2218897028E+01   6.2602939652E+01   2.5000000000E-01   7.980031E+00   0.
3000001    1    5    0    0    0  -9.7472691913E+00   5.7092134655E+00  -7.7809172374E+00   1.3753074134E+01   1.0000000000E+00     0.000  -1.
3000022   2   5   0   0   0   -3.1311061258E+00   3.3397468742E+00   3.0234135320E+00   5.4919271791E+00   2.5000000000E-01   8.821101E-01   0.
13    1    7    0    0    0   2.0927833969E+00  -6.8715434074E-01   2.0095250760E+01   2.0215886118E+01   1.0500000000E-01     0.000  -1.
-13    1    7    0    0    0   4.4407108678E+00  -1.5905327249E+00   4.2123646268E+01   4.2387053534E+01   1.0500000000E-01     0.000   1.
13    1    9    0    0    0  -1.7295084175E+00   1.9053665772E+00   1.7602353118E+00   3.1194670238E+00   1.0500000000E-01     0.000  -1.
-13    1    9    0    0    0  -1.4015977083E+00   1.4343802970E+00   1.2631782202E+00   2.3724601553E+00   1.0500000000E-01     0.000   1.
</event>
<event>
 13   1  9.2978750E-05  1.2500000E+02  7.5467720E-03  1.2380620E-01
   21   -1    0    0  502  501   0.0000000000E+00   0.0000000000E+00   7.2070301585E+02   7.2070301585E+02   0.0000000000E+00     0.000  -1.
   21   -1    0    0  501  502   0.0000000000E+00   0.0000000000E+00  -5.4200550214E+00   5.4200550214E+00   0.0000000000E+00     0.000  -1.
   25    2    1    2    0    0   0.0000000000E+00   0.0000000000E+00   7.1528296083E+02   7.2612307087E+02   1.2500000000E+02  6.307E-09  -1.
3000002    2    3    0    0    0  -7.7949348668E+00   5.1414228697E+01   5.5048455185E+02   5.5302570080E+02   1.0000000000E+01  4.820E-10   1.
3000002    2    3    0    0    0   7.7949348668E+00  -5.1414228697E+01   1.6479840898E+02   1.7309737007E+02   1.0000000000E+01  4.265E-10   1.
3000001    1    4    0    0    0  -2.1500508702E+00   2.1501374657E+01   1.8068384616E+02   1.8197413029E+02   1.0000000000E+00     0.000  -1.
3000022   2   4   0   0   0   -5.6448839966E+00   2.9912854040E+01   3.6980070569E+02   3.7105157051E+02   2.5000000000E-01   9.819882E+00   0.
3000001    1    5    0    0    0   1.1199321588E+00  -1.6749324145E+01   3.9738111521E+01   4.3149873866E+01   1.0000000000E+00     0.000  -1.
3000022   2   5   0   0   0   6.6750027080E+00   -3.4664904552E+01   1.2506029746E+02   1.2994749620E+02   2.5000000000E-01   3.926405E+00   0.
13    1    7    0    0    0  -3.9507586699E+00   2.0925211744E+01   2.5812986618E+02   2.5900677948E+02   1.0500000000E-01     0.000  -1.
-13    1    7    0    0    0  -1.6941253267E+00   8.9876422959E+00   1.1167083951E+02   1.1204479103E+02   1.0500000000E-01     0.000   1.
13    1    9    0    0    0   2.9222168269E+00  -1.5454395166E+01   5.5868133644E+01   5.8039960915E+01   1.0500000000E-01     0.000   1.
-13    1    9    0    0    0   3.7527858810E+00  -1.9210509386E+01   6.9192163814E+01   7.1907535287E+01   1.0500000000E-01     0.000  -1.
</event>
<event>
 13   1  9.2978750E-05  1.2500000E+02  7.5467720E-03  1.2380620E-01
   21   -1    0    0  502  501   0.0000000000E+00   0.0000000000E+00   2.8713658671E+02   2.8713658671E+02   0.0000000000E+00     0.000   1.
   21   -1    0    0  501  502   0.0000000000E+00   0.0000000000E+00  -1.3604152800E+01   1.3604152800E+01   0.0000000000E+00     0.000   1.
   25    2    1    2    0    0   0.0000000000E+00   0.0000000000E+00   2.7353243391E+02   3.0074073951E+02   1.2500000000E+02  2.735E-08  -1.
3000002    2    3    0    0    0  -2.2858801398E+01   4.7392347748E+01   2.1426880160E+02   2.2086122060E+02   1.0000000000E+01  4.877E-10   1.
3000002    2    3    0    0    0   2.2858801398E+01  -4.7392347748E+01   5.9263632307E+01   7.9879518906E+01   1.0000000000E+01  6.508E-10   1.
3000001    1    4    0    0    0  -1.4980001888E+01   2.2142489891E+01   9.5041593141E+01   9.8734972234E+01   1.0000000000E+00     0.000   1.
3000022   2   4   0   0   0   -7.8787995099E+00   2.5249857857E+01   1.1922720846E+02   1.2212624837E+02   2.5000000000E-01   2.665072E+00   0.
3000001    1    5    0    0    0   1.6962336125E+00  -2.5628741521E+00   7.6983941664E+00   8.3492996790E+00   1.0000000000E+00     0.000  -1.
3000022   2   5   0   0   0   2.1162567786E+01   -4.4829473596E+01   5.1565238140E+01   7.1530219227E+01   2.5000000000E-01   3.961679E+00   0.
13    1    7    0    0    0  -4.0876641534E+00   1.3098862463E+01   6.2164162836E+01   6.3660689300E+01   1.0500000000E-01     0.000  -1.
-13    1    7    0    0    0  -3.7911353566E+00   1.2150995393E+01   5.7063045625E+01   5.8465559070E+01   1.0500000000E-01     0.000   1.
13    1    9    0    0    0   6.9778579701E+00  -1.4864376022E+01   1.7137755883E+01   2.3735076955E+01   1.0500000000E-01     0.000  -1.
-13    1    9    0    0    0   1.4184709815E+01  -2.9965097574E+01   3.4427482258E+01   4.7795142271E+01   1.0500000000E-01     0.000   1.
</event>
<event>
 13   1  9.2978750E-05  1.2500000E+02  7.5467720E-03  1.2380620E-01
   21   -1    0    0  502  501   0.0000000000E+00   0.0000000000E+00   9.2793498733E+01   9.2793498733E+01   0.0000000000E+00     0.000   1.
   21   -1    0    0  501  502   0.0000000000E+00   0.0000000000E+00  -4.2096160327E+01   4.2096160327E+01   0.0000000000E+00     0.000   1.
   25    2    1    2    0    0   0.0000000000E+00   0.0000000000E+00   5.0697338406E+01   1.3488965906E+02   1.2500000000E+02  7.043E-09  -1.
3000002    2    3    0    0    0   3.3442320873E+01  -4.7687320047E+01   3.3976975375E+00   5.9194709790E+01   1.0000000000E+01  5.877E-10   1.
3000002    2    3    0    0    0  -3.3442320873E+01   4.7687320047E+01   4.7299640868E+01   7.5694949270E+01   1.0000000000E+01  3.074E-10   1.
3000001    1    4    0    0    0   2.3250754447E+01  -2.7622517163E+01  -1.5446639657E+00   3.6152275496E+01   1.0000000000E+00     0.000   1.
3000022   2   4   0   0   0   1.0191566426E+01   -2.0064802884E+01   4.9423615032E+00   2.3042434294E+01   2.5000000000E-01   1.215224E+01   0.
3000001    1    5    0    0    0  -8.5471183745E+00   1.6264450553E+01   1.0029499428E+01   2.0956537001E+01   1.0000000000E+00     0.000  -1.
3000022   2   5   0   0   0   -2.4895202498E+01   3.1422869494E+01   3.7270141441E+01   5.4738412268E+01   2.5000000000E-01   2.807238E-01   0.
13    1    7    0    0    0   4.4138294799E+00  -8.7469683602E+00   2.0896933535E+00   1.0018442468E+01   1.0500000000E-01     0.000  -1.
-13    1    7    0    0    0   5.7777369456E+00  -1.1317834523E+01   2.8526681497E+00   1.3023991826E+01   1.0500000000E-01     0.000   1.
13    1    9    0    0    0  -1.0627136501E+01   1.3312929395E+01   1.5811356605E+01   2.3241775792E+01   1.0500000000E-01     0.000  -1.
-13    1    9    0    0    0  -1.4268065997E+01   1.8109940099E+01   2.1458784836E+01   3.1496636476E+01   1.0500000000E-01     0.000   1.
</event>
<event>
 13   1  9.2978750E-05  1.2500000E+02  7.5467720E-03  1.2380620E-01
   21   -1    0    0  502  501   0.0000000000E+00   0.0000000000E+00   1.4134503013E+02   1.4134503013E+02   0.0000000000E+00     0.000  -1.
   21   -1    0    0  501  502   0.0000000000E+00   0.0000000000E+00  -2.7636274133E+01   2.7636274133E+01   0.0000000000E+00     0.000  -1.
   25    2    1    2    0    0   0.0000000000E+00   0.0000000000E+00   1.1370875600E+02   1.6898130426E+02   1.2500000000E+02  1.763E-08  -1.
3000002    2    3    0    0    0   1.7161259277E+01  -5.8883496124E+01   4.7838937847E+01   7.8424096489E+01   1.0000000000E+01  5.049E-09   1.
3000002    2    3    0    0    0  -1.7161259277E+01   5.8883496124E+01   6.5869818153E+01   9.0557207771E+01   1.0000000000E+01  3.081E-10   1.
3000001    1    4    0    0    0   6.1494333399E+00  -1.1011370678E+01   1.3417127492E+01   1.8441397039E+01   1.0000000000E+00     0.000   1.
3000022   2   4   0   0   0   1.1011825937E+01   -4.7872125446E+01   3.4421810355E+01   5.9982699450E+01   2.5000000000E-01   1.203685E+01   0.
3000001    1    5    0    0    0  -1.7113526554E+01   5.5290917301E+01   5.8213588197E+01   8.2096164210E+01   1.0000000000E+00     0.000   1.
3000022   2   5   0   0   0   -4.7732722338E-02   3.5925788229E+00   7.6562299556E+00   8.4610435612E+00   2.5000000000E-01   3.685987E+00   0.
13    1    7    0    0    0   4.8046800966E+00  -2.0858745295E+01   1.4919226624E+01   2.6091503486E+01   1.0500000000E-01     0.000   1.
-13    1    7    0    0    0   6.2071458402E+00  -2.7013380151E+01   1.9502583732E+01   3.3891195964E+01   1.0500000000E-01     0.000  -1.
13    1    9    0    0    0  -6.0188523361E-02   2.2479430635E+00   4.6648815558E+00   5.1796733107E+00   1.0500000000E-01     0.000  -1.
-13    1    9    0    0    0   1.2455801023E-02   1.3446357594E+00   2.9913483997E+00   3.2813702505E+00   1.0500000000E-01     0.000   1.
</event>
<event>
 13   1  9.2978750E-05  1.2500000E+02  7.5467720E-03  1.2380620E-01
   21   -1    0    0  502  501   0.0000000000E+00   0.0000000000E+00   1.2679444400E+01   1.2679444400E+01   0.0000000000E+00     0.000   1.
   21   -1    0    0  501  502   0.0000000000E+00   0.0000000000E+00  -3.0807737916E+02   3.0807737916E+02   0.0000000000E+00     0.000   1.
   25    2    1    2    0    0   0.0000000000E+00   0.0000000000E+00  -2.9539793475E+02   3.2075682356E+02   1.2500000000E+02  1.728E-08  -1.
3000002    2    3    0    0    0  -1.4577611793E+01  -5.5176434268E+01  -2.0784021109E+02   2.1576491608E+02   1.0000000000E+01  1.615E-09   1.
3000002    2    3    0    0    0   1.4577611793E+01   5.5176434268E+01  -8.7557723655E+01   1.0499190748E+02   1.0000000000E+01  1.284E-10   1.
3000001    1    4    0    0    0  -7.7647969311E+00  -3.2840633483E+01  -1.0447414037E+02   1.0979364865E+02   1.0000000000E+00     0.000  -1.
3000022   2   4   0   0   0   -6.8128148622E+00   -2.2335800785E+01   -1.0336607073E+02   1.0597126743E+02   2.5000000000E-01   2.681835E+00   0.
3000001    1    5    0    0    0   1.0050251231E+00   7.1596151336E+00  -6.3271927755E+00   9.6593753824E+00   1.0000000000E+00     0.000   1.
3000022   2   5   0   0   0   1.3572586670E+01   4.8016819134E+01   -8.1230530880E+01   9.5332532095E+01   2.5000000000E-01   3.164597E-01   0.
13    1    7    0    0    0  -2.2313833018E+00  -7.2871511179E+00  -3.3503416971E+01   3.4359447268E+01   1.0500000000E-01     0.000  -1.
-13    1    7    0    0    0  -4.5814315604E+00  -1.5048649667E+01  -6.9862653757E+01   7.1611820162E+01   1.0500000000E-01     0.000   1.
13    1    9    0    0    0   5.2963624126E+00   1.8831996252E+01  -3.1954879500E+01   3.7467597821E+01   1.0500000000E-01     0.000   1.
-13    1    9    0    0    0   8.2762242576E+00   2.9184822883E+01  -4.9275651380E+01   5.7864934274E+01   1.0500000000E-01     0.000  -1.
</event>
<event>
 13   1  9.2978750E-05  1.2500000E+02  7.5467720E-03  1.2380620E-01
   21   -1    0    0  502  501   0.0000000000E+00   0.0000000000E+00   7.7032965116E+01   7.7032965116E+01   0.0000000000E+00     0.000  -1.
   21   -1    0    0  501  502   0.0000000000E+00   0.0000000000E+00  -5.0708810106E+01   5.0708810106E+01   0.0000000000E+00     0.000  -1.
   25    2    1    2    0    0   0.0000000000E+00   0.0000000000E+00   2.6324155010E+01   1.2774177522E+02   1.2500000000E+02  7.653E-08  -1.
3000002    2    3    0    0    0  -4.5856615119E+01   2.0406236600E+01   4.9823834996E+01   7.1425892897E+01   1.0000000000E+01  5.197E-10  -1.
3000002    2    3    0    0    0   4.5856615119E+01  -2.0406236600E+01  -2.3499679986E+01   5.6315882323E+01   1.0000000000E+01  1.888E-09  -1.
3000001    1    4    0    0    0  -1.2875195968E+01   4.5894564996E+00   1.9919498802E+01   2.4178920876E+01   1.0000000000E+00     0.000  -1.
3000022   2   4   0   0   0   -3.2981419151E+01   1.5816780101E+01   2.9904336194E+01   4.7246972021E+01   2.5000000000E-01   8.521572E+00   0.
3000001    1    5    0    0    0   2.6294527339E+01  -1.5985483422E+01  -1.1061993098E+01   3.2715524443E+01   1.0000000000E+00     0.000  -1.
3000022   2   5   0   0   0   1.9562087780E+01   -4.4207531778E+00   -1.2437686888E+01   2.3600357881E+01   2.5000000000E-01   5.415667E-02   0.
13    1    7    0    0    0  -1.7059223187E+01   8.1059480874E+00   1.5441390175E+01   2.4396127677E+01   1.0500000000E-01     0.000   1.
-13    1    7    0    0    0  -1.5922195964E+01   7.7108320132E+00   1.4462946020E+01   2.2850844344E+01   1.0500000000E-01     0.000  -1.
13    1    9    0    0    0   8.2775608821E+00  -1.8414072263E+00  -5.1903014414E+00   9.9427887829E+00   1.0500000000E-01     0.000  -1.
-13    1    9    0    0    0   1.1284526898E+01  -2.5793459515E+00  -7.2473854466E+00   1.3657569098E+01   1.0500000000E-01     0.000   1.
</event>
<event>
 13   1  9.2978750E-05  1.2500000E+02  7.5467720E-03  1.2380620E-01
   21   -1    0    0  502  501   0.0000000000E+00   0.0000000000E+00   3.9860081032E+02   3.9860081032E+02   0.0000000000E+00     0.000  -1.
   21   -1    0    0  501  502   0.0000000000E+00   0.0000000000E+00  -9.7999048142E+00   9.7999048142E+00   0.0000000000E+00     0.000  -1.
   25    2    1    2    0    0   0.0000000000E+00   0.0000000000E+00   3.8880090550E+02   4.0840071513E+02   1.2500000000E+02  2.692E-08  -1.
3000002    2    3    0    0    0   3.5306905605E+01  -2.5294426218E+01   3.3755717984E+02   3.4048676222E+02   1.0000000000E+01  7.052E-10  -1.
3000002    2    3    0    0    0  -3.5306905605E+01   2.5294426218E+01   5.1243725656E+01   6.7913952913E+01   1.0000000000E+01  1.181E-10  -1.
3000001    1    4    0    0    0   3.4495291615E+01  -2.4449822973E+01   3.3504327179E+02   3.3770210683E+02   1.0000000000E+00     0.000  -1.
3000022   2   4   0   0   0   8.1161399052E-01   -8.4460324466E-01   2.5139080509E+00   2.7846553824E+00   2.5000000000E-01   1.375343E+00   -1.
3000001    1    5    0    0    0  -3.0166111089E+01   2.5333611135E+01   4.5899393315E+01   6.0494135402E+01   1.0000000000E+00     0.000  -1.
3000022   2   5   0   0   0   -5.1407945161E+00   -3.9184917464E-02   5.3443323417E+00   7.4198175108E+00   2.5000000000E-01   1.190835E+00   0.
13    1    7    0    0    0   5.7735509191E-01  -6.4914473096E-01   1.8321303356E+00   2.0303828089E+00   1.0500000000E-01     0.000  -1.
-13    1    7    0    0    0   2.3425889861E-01  -1.9545851370E-01   6.8177771525E-01   7.5427257352E-01   1.0500000000E-01     0.000   1.
13    1    9    0    0    0  -3.7696018317E+00  -4.7359190150E-03   3.8794724239E+00   5.4102912756E+00   1.0500000000E-01     0.000  -1.
-13    1    9    0    0    0  -1.3711926844E+00  -3.4448998449E-02   1.4648599178E+00   2.0095262352E+00   1.0500000000E-01     0.000   1.
</event>
<event>
 13   1  9.2978750E-05  1.2500000E+02  7.5467720E-03  1.2380620E-01
   21   -1    0    0  502  501   0.0000000000E+00   0.0000000000E+00   7.2559397268E+01   7.2559397268E+01   0.0000000000E+00     0.000   1.
   21   -1    0    0  501  502   0.0000000000E+00   0.0000000000E+00  -5.3835204634E+01   5.3835204634E+01   0.0000000000E+00     0.000   1.
   25    2    1    2    0    0   0.0000000000E+00   0.0000000000E+00   1.8724192634E+01   1.2639460190E+02   1.2500000000E+02  4.184E-08  -1.
3000002    2    3    0    0    0   1.5508084462E+01   4.2937655925E+01  -3.2599169606E+01   5.6981127043E+01   1.0000000000E+01  5.223E-11  -1.
3000002    2    3    0    0    0  -1.5508084462E+01  -4.2937655925E+01   5.1323362240E+01   6.9413474857E+01   1.0000000000E+01  9.981E-10  -1.
3000001    1    4    0    0    0   1.3473066890E+01   4.1919777828E+01  -3.2412996728E+01   5.4684491965E+01   1.0000000000E+00     0.000  -1.
3000022   2   4   0   0   0   2.0350175721E+00   1.0178780974E+00   -1.8617287810E-01   2.2966350778E+00   2.5000000000E-01   4.077185E+00   0.
3000001    1    5    0    0    0  -1.4765829999E+01  -2.7115620126E+01   3.4219681205E+01   4.6100685159E+01   1.0000000000E+00     0.000  -1.
3000022   2   5   0   0   0   -7.4225446302E-01   -1.5822035800E+01   1.7103681035E+01   2.3312789698E+01   2.5000000000E-01   3.281044E+00   0.
13    1    7    0    0    0   1.2888731080E+00   6.9674874442E-01  -1.5363242675E-01   1.4769159164E+00   1.0500000000E-01     0.000   1.
-13    1    7    0    0    0   7.4614446412E-01   3.2112935296E-01  -3.2540451342E-02   8.1971916145E-01   1.0500000000E-01     0.000  -1.
13    1    9    0    0    0  -2.9158714676E-01  -7.0426372995E+00   7.6907574597E+00   1.0432762745E+01   1.0500000000E-01     0.000  -1.
-13    1    9    0    0    0  -4.5066731626E-01  -8.7793985001E+00   9.4129235754E+00   1.2880026952E+01   1.0500000000E-01     0.000   1.
</event>
<event>
 13   1  9.2978750E-05  1.2500000E+02  7.5467720E-03  1.2380620E-01
   21   -1    0    0  502  501   0.0000000000E+00   0.0000000000E+00   2.4875145522E+02   2.4875145522E+02   0.0000000000E+00     0.000  -1.
   21   -1    0    0  501  502   0.0000000000E+00   0.0000000000E+00  -1.5703425721E+01   1.5703425721E+01   0.0000000000E+00     0.000  -1.
   25    2    1    2    0    0   0.0000000000E+00   0.0000000000E+00   2.3304802950E+02   2.6445488095E+02   1.2500000000E+02  5.308E-08  -1.
3000002    2    3    0    0    0  -8.0079409314E+00   1.7240525755E+01  -7.6495285912E+00   2.2800836255E+01   1.0000000000E+01  7.412E-12  -1.
3000002    2    3    0    0    0   8.0079409314E+00  -1.7240525755E+01   2.4069755809E+02   2.4165404469E+02   1.0000000000E+01  4.164E-10  -1.
3000001    1    4    0    0    0  -8.8372109570E+00   1.2937977031E+01  -9.1389623707E+00   1.8166127280E+01   1.0000000000E+00     0.000  -1.
3000022   2   4   0   0   0   8.2927002566E-01   4.3025487240E+00   1.4894337795E+00   4.6347089748E+00   2.5000000000E-01   1.323198E+01   0.
3000001    1    5    0    0    0   7.4259966519E+00  -5.9225241106E+00   1.3871448829E+02   1.3904291057E+02   1.0000000000E+00     0.000  -1.
3000022   2   5   0   0   0   5.8194427950E-01   -1.1318001645E+01   1.0198306980E+02   1.0261113412E+02   2.5000000000E-01   2.245664E+00   0.
13    1    7    0    0    0   3.7410960154E-01   1.8305808631E+00   7.0074181902E-01   1.9982613411E+00   1.0500000000E-01     0.000  -1.
-13    1    7    0    0    0   4.5516042412E-01   2.4719678609E+00   7.8869196049E-01   2.6364476337E+00   1.0500000000E-01     0.000   1.
13    1    9    0    0    0   3.9357106948E-01  -6.4374453714E+00   5.8211701603E+01   5.8567984682E+01   1.0500000000E-01     0.000   1.
-13    1    9    0    0    0   1.8837321002E-01  -4.8805562732E+00   4.3771368194E+01   4.4043149440E+01   1.0500000000E-01     0.000  -1.
</event>
<event>
 13   1  9.2978750E-05  1.2500000E+02  7.5467720E-03  1.2380620E-01
   21   -1    0    0  502  501   0.0000000000E+00   0.0000000000E+00   5.8635552008E+00   5.8635552008E+00   0.0000000000E+00     0.000  -1.
   21   -1    0    0  501  502   0.0000000000E+00   0.0000000000E+00  -6.6619139178E+02   6.6619139178E+02   0.0000000000E+00     0.000  -1.
   25    2    1    2    0    0   0.0000000000E+00   0.0000000000E+00  -6.6032783658E+02   6.7205494698E+02   1.2500000000E+02  3.076E-08  -1.
3000002    2    3    0    0    0  -3.8253264423E+01  -4.2579811343E+01  -2.0640096207E+02   2.1442413511E+02   1.0000000000E+01  2.085E-09  -1.
3000002    2    3    0    0    0   3.8253264423E+01   4.2579811343E+01  -4.5392687451E+02   4.5763081187E+02   1.0000000000E+01  2.322E-09  -1.
3000001    1    4    0    0    0  -2.9805634358E+01  -3.1613924148E+01  -1.7033953050E+02   1.7579639271E+02   1.0000000000E+00     0.000  -1.
3000022   2   4   0   0   0   -8.4476300647E+00   -1.0965887194E+01   -3.6061431570E+01   3.8627742395E+01   2.5000000000E-01   7.083571E-01   0.
3000001    1    5    0    0    0   2.5085072199E+00   5.1308944643E+00  -6.8054802392E+01   6.8301352952E+01   1.0000000000E+00     0.000  -1.
3000022   2   5   0   0   0   3.5744757203E+01   3.7448916878E+01   -3.8587207212E+02   3.8932945892E+02   2.5000000000E-01   1.904502E+00   0.
13    1    7    0    0    0  -5.2010419974E+00  -6.8031454438E+00  -2.2161856346E+01   2.3759051485E+01   1.0500000000E-01     0.000   1.
-13    1    7    0    0    0  -3.2465880673E+00  -4.1627417507E+00  -1.3899575224E+01   1.4868690910E+01   1.0500000000E-01     0.000  -1.
13    1    9    0    0    0   2.3331051878E+01   2.4490981668E+01  -2.5245928192E+02   2.5471522572E+02   1.0500000000E-01     0.000  -1.
-13    1    9    0    0    0   1.2413705325E+01   1.2957935210E+01  -1.3341279020E+02   1.3461423319E+02   1.0500000000E-01     0.000   1.
</event>
<event>
 13   1  9.2978750E-05  1.2500000E+02  7.5467720E-03  1.2380620E-01
   21   -1    0    0  502  501   0.0000000000E+00   0.0000000000E+00   1.4017848547E+02   1.4017848547E+02   0.0000000000E+00     0.000   1.
   21   -1    0    0  501  502   0.0000000000E+00   0.0000000000E+00  -2.7866259125E+01   2.7866259125E+01   0.0000000000E+00     0.000   1.
   25    2    1    2    0    0   0.0000000000E+00   0.0000000000E+00   1.1231222635E+02   1.6804474460E+02   1.2500000000E+02  1.671E-08  -1.
3000002    2    3    0    0    0   4.7855326496E+01  -3.5569600506E+01   3.4860819210E+01   6.9789723241E+01   1.0000000000E+01  1.827E-10  -1.
3000002    2    3    0    0    0  -4.7855326496E+01   3.5569600506E+01   7.7451407140E+01   9.8255021359E+01   1.0000000000E+01  4.294E-10  -1.
3000001    1    4    0    0    0   2.2034968888E+01  -1.2443766596E+01   1.9050632639E+01   3.1690910132E+01   1.0000000000E+00     0.000   1.
3000022   2   4   0   0   0   2.5820357607E+01   -2.3125833910E+01   1.5810186570E+01   3.8098813110E+01   2.5000000000E-01   1.993263E-01   0.
3000001    1    5    0    0    0  -4.6496076076E+01   3.1767830620E+01   7.3526079719E+01   9.2618381283E+01   1.0000000000E+00     0.000  -1.
3000022   2   5   0   0   0   -1.3592504195E+00   3.8017698860E+00   3.9253274218E+00   5.6366400752E+00   2.5000000000E-01   1.507948E+01   1.
13    1    7    0    0    0   1.9833556002E+01  -1.7765082755E+01   1.2133293285E+01   2.9260826029E+01   1.0500000000E-01     0.000  -1.
-13    1    7    0    0    0   5.9868016051E+00  -5.3607511550E+00   3.6768932848E+00   8.8379870804E+00   1.0500000000E-01     0.000   1.
13    1    9    0    0    0  -6.3130336267E-01   1.5732991375E+00   1.6488633438E+00   2.3671901990E+00   1.0500000000E-01     0.000   1.
-13    1    9    0    0    0  -7.2794705685E-01   2.2284707485E+00   2.2764640780E+00   3.2694498762E+00   1.0500000000E-01     0.000   1.
</event>
<event>
 13   1  9.2978750E-05  1.2500000E+02  7.5467720E-03  1.2380620E-01
   21   -1    0    0  502  501   0.0000000000E+00   0.0000000000E+00   1.3259037537E+02   1.3259037537E+02   0.0000000000E+00     0.000  -1.
   21   -1    0    0  501  502   0.0000000000E+00   0.0000000000E+00  -2.9461037342E+01   2.9461037342E+01   0.0000000000E+00     0.000  -1.
   25    2    1    2    0    0   0.0000000000E+00   0.0000000000E+00   1.0312933803E+02   1.6205141271E+02   1.2500000000E+02  1.224E-08  -1.
3000002    2    3    0    0    0  -4.2512028128E+01  -2.1374753611E+01   1.0247415440E+02   1.1342444598E+02   1.0000000000E+01  2.493E-10  -1.
3000002    2    3    0    0    0   4.2512028128E+01   2.1374753611E+01   6.5518363481E-01   4.8626966727E+01   1.0000000000E+01  7.241E-10  -1.
3000001    1    4    0    0    0  -1.9227379616E+01  -1.5188679266E+01   5.0823763594E+01   5.6430869660E+01   1.0000000000E+00     0.000  -1.
3000022   2   4   0   0   0   -2.3284648512E+01   -6.1860743454E+00   5.1650390801E+01   5.6993576323E+01   2.5000000000E-01   7.535390E+00   0.
3000001    1    5    0    0    0   3.7863750429E+01   2.1014046756E+01   2.9665592606E+00   4.3417211235E+01   1.0000000000E+00     0.000  -1.
3000022   2   5   0   0   0   4.6482776989E+00   3.6070685551E-01   -2.3113756258E+00   5.2097554919E+00   2.5000000000E-01   1.161153E+01   0.
13    1    7    0    0    0  -1.5133355081E+01  -4.0598381356E+00   3.3491133927E+01   3.6975232229E+01   1.0500000000E-01     0.000  -1.
-13    1    7    0    0    0  -8.1512934314E+00  -2.1262362098E+00   1.8159256875E+01   2.0018344094E+01   1.0500000000E-01     0.000   1.
13    1    9    0    0    0   3.4658147092E+00   2.4071945568E-01  -1.7295212475E+00   3.8822784806E+00   1.0500000000E-01     0.000  -1.
-13    1    9    0    0    0   1.1824629896E+00   1.1998739983E-01  -5.8185437831E-01   1.3274770113E+00   1.0500000000E-01     0.000   1.
</event>
<event>
 13   1  9.2978750E-05  1.2500000E+02  7.5467720E-03  1.2380620E-01
   21   -1    0    0  502  501   0.0000000000E+00   0.0000000000E+00   1.6174704068E+01   1.6174704068E+01   0.0000000000E+00     0.000  -1.
   21   -1    0    0  501  502   0.0000000000E+00   0.0000000000E+00  -2.4150364566E+02   2.4150364566E+02   0.0000000000E+00     0.000  -1.
   25    2    1    2    0    0   0.0000000000E+00   0.0000000000E+00  -2.2532894159E+02   2.5767834973E+02   1.2500000000E+02  2.112E-08  -1.
3000002    2    3    0    0    0  -4.5805252987E+01  -1.2849771536E+01  -1.9363977593E+02   1.9964869309E+02   1.0000000000E+01  6.955E-10   1.
3000002    2    3    0    0    0   4.5805252987E+01   1.2849771536E+01  -3.1689165660E+01   5.8029656641E+01   1.0000000000E+01  6.987E-10   1.
3000001    1    4    0    0    0  -8.5774680317E+00   8.1023694904E-01  -4.3778937466E+01   4.4629864524E+01   1.0000000000E+00     0.000  -1.
3000022   2   4   0   0   0   -3.7227784955E+01   -1.3660008485E+01   -1.4986083846E+02   1.5501882856E+02   2.5000000000E-01   8.257529E-01   0.
3000001    1    5    0    0    0   4.0089645372E+01   1.3893121000E+01  -2.5385599379E+01   4.9453282328E+01   1.0000000000E+00     0.000   1.
3000022   2   5   0   0   0   5.7156076152E+00   -1.0433494643E+00   -6.3035662803E+00   8.5763743135E+00   2.5000000000E-01   6.684029E-01   0.
13    1    7    0    0    0  -2.5421952511E+01  -9.2817528053E+00  -1.0217706060E+02   1.0570046993E+02   1.0500000000E-01     0.000   1.
-13    1    7    0    0    0  -1.1805832444E+01  -4.3782556794E+00  -4.7683777864E+01   4.9318358639E+01   1.0500000000E-01     0.000  -1.
13    1    9    0    0    0   1.6478999338E+00  -2.6589703006E-01  -1.8490991302E+00   2.4932845838E+00   1.0500000000E-01     0.000   1.
-13    1    9    0    0    0   4.0677076813E+00  -7.7745243427E-01  -4.4544671501E+00   6.0830897297E+00   1.0500000000E-01     0.000  -1.
</event>
<event>
 13   1  9.2978750E-05  1.2500000E+02  7.5467720E-03  1.2380620E-01
   21   -1    0    0  502  501   0.0000000000E+00   0.0000000000E+00   1.8474351194E+01   1.8474351194E+01   0.0000000000E+00     0.000  -1.
   21   -1    0    0  501  502   0.0000000000E+00   0.0000000000E+00  -2.1144179619E+02   2.1144179619E+02   0.0000000000E+00     0.000  -1.
   25    2    1    2    0    0   0.0000000000E+00   0.0000000000E+00  -1.9296744500E+02   2.2991614739E+02   1.2500000000E+02  1.746E-09  -1.
3000002    2    3    0    0    0   1.1475649268E+01  -6.0143871370E+01  -8.2563729499E+01   1.0327509486E+02   1.0000000000E+01  5.629E-10   1.
3000002    2    3    0    0    0  -1.1475649268E+01   6.0143871370E+01  -1.1040371550E+02   1.2664105253E+02   1.0000000000E+01  2.023E-09   1.
3000001    1    4    0    0    0   5.9517376227E+00  -5.0541978591E+01  -6.9477459224E+01   8.6127998472E+01   1.0000000000E+00     0.000   1.
3000022   2   4   0   0   0   5.5239116458E+00   -9.6018927795E+00   -1.3086270275E+01   1.7147096387E+01   2.5000000000E-01   6.106237E+00   1.
3000001    1    5    0    0    0  -2.6625021410E+00   2.9302187744E+01  -6.1072828142E+01   6.7798211345E+01   1.0000000000E+00     0.000   1.
3000022   2   5   0   0   0   -8.8131471275E+00   3.0841683626E+01   -4.9330887359E+01   5.8842841186E+01   2.5000000000E-01   2.014976E+00   0.
13    1    7    0    0    0   3.9628290938E+00  -6.8996118425E+00  -9.3363536848E+00   1.2267321759E+01   1.0500000000E-01     0.000   1.
-13    1    7    0    0    0   1.5610825519E+00  -2.7022809370E+00  -3.7499165898E+00   4.8797746287E+00   1.0500000000E-01     0.000   1.
13    1    9    0    0    0  -5.2623381603E+00   1.8544637748E+01  -2.9741454279E+01   3.5442360527E+01   1.0500000000E-01     0.000  -1.
-13    1    9    0    0    0  -3.5508089672E+00   1.2297045878E+01  -1.9589433080E+01   2.3400480659E+01   1.0500000000E-01     0.000   1.
</event>
<event>
 13   1  9.2978750E-05  1.2500000E+02  7.5467720E-03  1.2380620E-01
   21   -1    0    0  502  501   0.0000000000E+00   0.0000000000E+00   1.5686353061E+02   1.5686353061E+02   0.0000000000E+00     0.000   1.
   21   -1    0    0  501  502   0.0000000000E+00   0.0000000000E+00  -2.4902219049E+01   2.4902219049E+01   0.0000000000E+00     0.000   1.
   25    2    1    2    0    0   0.0000000000E+00   0.0000000000E+00   1.3196131156E+02   1.8176574966E+02   1.2500000000E+02  1.389E-07  -1.
3000002    2    3    0    0    0   4.7120160251E+01  -1.1271243687E+01   1.2152178895E+02   1.3120554724E+02   1.0000000000E+01  5.138E-13   1.
3000002    2    3    0    0    0  -4.7120160251E+01   1.1271243687E+01   1.0439522606E+01   5.0560202419E+01   1.0000000000E+01  2.220E-10   1.
3000001    1    4    0    0    0   2.4907253918E+01  -1.3852245972E+00   5.5811777906E+01   6.1141186593E+01   1.0000000000E+00     0.000   1.
3000022   2   4   0   0   0   2.2212906333E+01   -9.8860190894E+00   6.5710011048E+01   7.0064360648E+01   2.5000000000E-01   4.550039E-01   0.
3000001    1    5    0    0    0  -4.3370532458E+01   7.5409215447E+00   1.0490179610E+01   4.5264914135E+01   1.0000000000E+00     0.000   1.
3000022   2   5   0   0   0   -3.7496277939E+00   3.7303221419E+00   -5.0657003802E-02   5.2952882836E+00   2.5000000000E-01   9.439708E+00   0.
13    1    7    0    0    0   6.1010729004E+00  -2.7365039830E+00   1.8166895928E+01   1.9358684801E+01   1.0500000000E-01     0.000  -1.
-13    1    7    0    0    0   1.6111833433E+01  -7.1495151063E+00   4.7543115120E+01   5.0705675847E+01   1.0500000000E-01     0.000   1.
13    1    9    0    0    0  -2.8886249807E+00   2.8687460906E+00  -4.6110005455E-02   4.0727152545E+00   1.0500000000E-01     0.000   1.
-13    1    9    0    0    0  -8.6100281314E-01   8.6157605129E-01  -4.5469983468E-03   1.2225730291E+00   1.0500000000E-01     0.000  -1.
</event>
<event>
 13   1  9.2978750E-05  1.2500000E+02  7.5467720E-03  1.2380620E-01
   21   -1    0    0  502  501   0.0000000000E+00   0.0000000000E+00   5.2304804827E+01   5.2304804827E+01   0.0000000000E+00     0.000  -1.
   21   -1    0    0  501  502   0.0000000000E+00   0.0000000000E+00  -7.4682431431E+01   7.4682431431E+01   0.0000000000E+00     0.000  -1.
   25    2    1    2    0    0   0.0000000000E+00   0.0000000000E+00  -2.2377626604E+01   1.2698723626E+02   1.2500000000E+02  2.843E-08  -1.
3000002    2    3    0    0    0   2.7004016073E+01   5.1834646168E+01  -3.1256398829E+01   6.7029917911E+01   1.0000000000E+01  6.483E-10   1.
3000002    2    3    0    0    0  -2.7004016073E+01  -5.1834646168E+01   8.8787722250E+00   5.9957318349E+01   1.0000000000E+01  7.074E-10   1.
3000001    1    4    0    0    0   1.0899065816E+01   2.9597920998E+01  -1.9961797295E+01   3.7340325579E+01   1.0000000000E+00     0.000   1.
3000022   2   4   0   0   0   1.6104950257E+01   2.2236725169E+01   -1.1294601534E+01   2.9689592332E+01   2.5000000000E-01   9.440075E+00   0.
3000001    1    5    0    0    0  -1.6800433717E+01  -3.9078443092E+01   3.2285377089E+00   4.2670865275E+01   1.0000000000E+00     0.000   1.
3000022   2   5   0   0   0   -1.0203582356E+01   -1.2756203076E+01   5.6502345161E+00   1.7286453074E+01   2.5000000000E-01   2.670312E+00   0.
13    1    7    0    0    0   9.2513407196E+00   1.2693647597E+01  -6.4121350632E+00   1.6965921593E+01   1.0500000000E-01     0.000   1.
-13    1    7    0    0    0   6.8536095372E+00   9.5430775726E+00  -4.8824664703E+00   1.2723670739E+01   1.0500000000E-01     0.000  -1.
13    1    9    0    0    0  -5.4041880319E+00  -6.8489472995E+00   2.9814376696E+00   9.2202669687E+00   1.0500000000E-01     0.000   1.
-13    1    9    0    0    0  -4.7993943236E+00  -5.9072557761E+00   2.6687968464E+00   8.0661861053E+00   1.0500000000E-01     0.000  -1.
</event>
<event>
 13   1  9.2978750E-05  1.2500000E+02  7.5467720E-03  1.2380620E-01
   21   -1    0    0  502  501   0.0000000000E+00   0.0000000000E+00   3.4395055722E+01   3.4395055722E+01   0.0000000000E+00     0.000   1.
   21   -1    0    0  501  502   0.0000000000E+00   0.0000000000E+00  -1.1357010239E+02   1.1357010239E+02   0.0000000000E+00     0.000   1.
   25    2    1    2    0    0   0.0000000000E+00   0.0000000000E+00  -7.9175046665E+01   1.4796515811E+02   1.2500000000E+02  5.982E-08  -1.
3000002    2    3    0    0    0   2.4404677721E+01   4.1168410043E+01   6.4989842693E+00   4.9322034393E+01   1.0000000000E+01  4.597E-10  -1.
3000002    2    3    0    0    0  -2.4404677721E+01  -4.1168410043E+01  -8.5674030934E+01   9.8643123717E+01   1.0000000000E+01  4.788E-10  -1.
3000001    1    4    0    0    0   1.9789274550E+01   2.4196348608E+01   3.3640447054E+00   3.1454657365E+01   1.0000000000E+00     0.000   1.
3000022   2   4   0   0   0   4.6154031707E+00   1.6972061435E+01   3.1349395638E+00   1.7867377028E+01   2.5000000000E-01   2.866012E+00   0.
3000001    1    5    0    0    0  -1.0201607447E+01  -9.9036010459E+00  -3.0303062306E+01   3.3487754379E+01   1.0000000000E+00     0.000  -1.
3000022   2   5   0   0   0   -1.4203070274E+01   -3.1264808997E+01   -5.5370968628E+01   6.5155369338E+01   2.5000000000E-01   2.589406E+00   0.
13    1    7    0    0    0   2.4832536173E+00   8.8765222784E+00   1.6335078337E+00   9.3615473683E+00   1.0500000000E-01     0.000  -1.
-13    1    7    0    0    0   2.1321495534E+00   8.0955391571E+00   1.5014317302E+00   8.5058296599E+00   1.0500000000E-01     0.000   1.
13    1    9    0    0    0  -7.4558870654E+00  -1.6467010801E+01  -2.9267682208E+01   3.4400013714E+01   1.0500000000E-01     0.000  -1.
-13    1    9    0    0    0  -6.7471832082E+00  -1.4797798197E+01  -2.6103286419E+01   3.0755355625E+01   1.0500000000E-01     0.000   1.
</event>
<event>
 13   1  9.2978750E-05  1.2500000E+02  7.5467720E-03  1.2380620E-01
   21   -1    0    0  502  501   0.0000000000E+00   0.0000000000E+00   5.6917250624E+01   5.6917250624E+01   0.0000000000E+00     0.000  -1.
   21   -1    0    0  501  502   0.0000000000E+00   0.0000000000E+00  -6.8630335393E+01   6.8630335393E+01   0.0000000000E+00     0.000  -1.
   25    2    1    2    0    0   0.0000000000E+00   0.0000000000E+00  -1.1713084769E+01   1.2554758602E+02   1.2500000000E+02  3.758E-08  -1.
3000002    2    3    0    0    0   5.8194661010E+01   2.0097657912E+01  -1.8748884269E+00   6.2402320712E+01   1.0000000000E+01  1.261E-10   1.
3000002    2    3    0    0    0  -5.8194661010E+01  -2.0097657912E+01  -9.8381963421E+00   6.3145265308E+01   1.0000000000E+01  2.982E-11   1.
3000001    1    4    0    0    0   5.8376369341E+01   1.9591898998E+01  -2.3699963546E+00   6.1630024229E+01   1.0000000000E+00     0.000   1.
3000022   2   4   0   0   0   -1.8170833094E-01   5.0575891463E-01   4.9510792778E-01   7.7229648284E-01   2.5000000000E-01   7.326806E+00   0.
3000001    1    5    0    0    0  -4.1205195018E+01  -1.3472792393E+01  -1.1413258926E+01   4.4840235399E+01   1.0000000000E+00     0.000   1.
3000022   2   5   0   0   0   -1.6989465992E+01   -6.6248655197E+00   1.5750625840E+00   1.8305029909E+01   2.5000000000E-01   5.335663E-01   0.
13    1    7    0    0    0  -1.4061739761E-01   1.9852183930E-01   2.3684633279E-01   3.5539465182E-01   1.0500000000E-01     0.000   1.
-13    1    7    0    0    0  -4.1090933328E-02   3.0723707533E-01   2.5826159500E-01   4.1690183102E-01   1.0500000000E-01     0.000  -1.
13    1    9    0    0    0  -1.0162806558E+01  -3.9805676392E+00   1.0039344577E+00   1.0961134305E+01   1.0500000000E-01     0.000  -1.
-13    1    9    0    0    0  -6.8266594336E+00  -2.6442978805E+00   5.7112812626E-01   7.3438956038E+00   1.0500000000E-01     0.000   1.
</event>
<event>
 13   1  9.2978750E-05  1.2500000E+02  7.5467720E-03  1.2380620E-01
   21   -1    0    0  502  501   0.0000000000E+00   0.0000000000E+00   6.1601082441E+01   6.1601082441E+01   0.0000000000E+00     0.000   1.
   21   -1    0    0  501  502   0.0000000000E+00   0.0000000000E+00  -6.3412035068E+01   6.3412035068E+01   0.0000000000E+00     0.000   1.
   25    2    1    2    0    0   0.0000000000E+00   0.0000000000E+00  -1.8109526270E+00   1.2501311751E+02   1.2500000000E+02  7.548E-08  -1.
3000002    2    3    0    0    0  -2.4428777907E+01  -4.0497711980E+01   3.8714588575E+01   6.1932618500E+01   1.0000000000E+01  7.260E-10  -1.
3000002    2    3    0    0    0   2.4428777907E+01   4.0497711980E+01  -4.0525541202E+01   6.3080499010E+01   1.0000000000E+01  6.697E-10  -1.
3000001    1    4    0    0    0  -1.5542775287E+00  -2.2529948882E-02   1.4687380416E+00   2.3608213972E+00   1.0000000000E+00     0.000   1.
3000022   2   4   0   0   0   -2.2874500379E+01   -4.0475182031E+01   3.7245850534E+01   5.9571797102E+01   2.5000000000E-01   3.743958E-01   0.
3000001    1    5    0    0    0   1.7577338974E+01   2.1150826506E+01  -2.6622134348E+01   3.8289141339E+01   1.0000000000E+00     0.000   1.
3000022   2   5   0   0   0   6.8514389339E+00   1.9346885474E+01   -1.3903406854E+01   2.4791357671E+01   2.5000000000E-01   2.433635E+00   0.
13    1    7    0    0    0  -1.7558015435E+01  -3.1044988469E+01   2.8568456650E+01   4.5697297026E+01   1.0500000000E-01     0.000  -1.
-13    1    7    0    0    0  -5.3164849433E+00  -9.4301935618E+00   8.6773938839E+00   1.3874500077E+01   1.0500000000E-01     0.000   1.
13    1    9    0    0    0   4.2510747047E+00   1.2155088730E+01  -8.6837299500E+00   1.5531774175E+01   1.0500000000E-01     0.000  -1.
-13    1    9    0    0    0   2.6003642293E+00   7.1917967440E+00  -5.2196769043E+00   9.2595834958E+00   1.0500000000E-01     0.000   1.
</event>
<event>
 13   1  9.2978750E-05  1.2500000E+02  7.5467720E-03  1.2380620E-01
   21   -1    0    0  502  501   0.0000000000E+00   0.0000000000E+00   5.7577292992E+01   5.7577292992E+01   0.0000000000E+00     0.000  -1.
   21   -1    0    0  501  502   0.0000000000E+00   0.0000000000E+00  -6.7843585501E+01   6.7843585501E+01   0.0000000000E+00     0.000  -1.
   25    2    1    2    0    0   0.0000000000E+00   0.0000000000E+00  -1.0266292509E+01   1.2542087849E+02   1.2500000000E+02  3.996E-09  -1.
3000002    2    3    0    0    0   9.5584257431E+00   2.6265853148E+01   5.0051962344E+01   5.8193276921E+01   1.0000000000E+01  1.522E-09  -1.
3000002    2    3    0    0    0  -9.5584257431E+00  -2.6265853148E+01  -6.0318254853E+01   6.7227601569E+01   1.0000000000E+01  4.110E-10  -1.
3000001    1    4    0    0    0   2.8303610749E+00   1.0570812512E+01   1.0896134610E+01   1.5475101629E+01   1.0000000000E+00     0.000   1.
3000022   2   4   0   0   0   6.7280646683E+00   1.5695040636E+01   3.9155827734E+01   4.2718175292E+01   2.5000000000E-01   5.098135E+00   0.
3000001    1    5    0    0    0  -3.1387029985E+00  -3.4540762616E+00  -1.9046679152E+01   1.9635633070E+01   1.0000000000E+00     0.000  -1.
3000022   2   5   0   0   0   -6.4197227446E+00   -2.2811776887E+01   -4.1271575701E+01   4.7591968500E+01   2.5000000000E-01   1.081605E+01   0.
13    1    7    0    0    0   4.1546041902E+00   9.8249024658E+00   2.4384406444E+01   2.6615780038E+01   1.0500000000E-01     0.000  -1.
-13    1    7    0    0    0   2.5734604781E+00   5.8701381703E+00   1.4771421290E+01   1.6102395253E+01   1.0500000000E-01     0.000   1.
13    1    9    0    0    0  -4.5325981998E+00  -1.6019577794E+01  -2.9070983403E+01   3.3500812232E+01   1.0500000000E-01     0.000  -1.
-13    1    9    0    0    0  -1.8871245448E+00  -6.7921990929E+00  -1.2200592297E+01   1.4091156268E+01   1.0500000000E-01     0.000   1.
</event>
<event>
 13   1  9.2978750E-05  1.2500000E+02  7.5467720E-03  1.2380620E-01
   21   -1    0    0  502  501   0.0000000000E+00   0.0000000000E+00   2.8163189400E+02   2.8163189400E+02   0.0000000000E+00     0.000   1.
   21   -1    0    0  501  502   0.0000000000E+00   0.0000000000E+00  -1.3870055499E+01   1.3870055499E+01   0.0000000000E+00     0.000   1.
   25    2    1    2    0    0   0.0000000000E+00   0.0000000000E+00   2.6776183850E+02   2.9550194950E+02   1.2500000000E+02  2.346E-08  -1.
3000002    2    3    0    0    0  -2.6946173408E+01   5.5172659945E+01   1.4809086217E+02   1.6062696575E+02   1.0000000000E+01  2.552E-09   1.
3000002    2    3    0    0    0   2.6946173408E+01  -5.5172659945E+01   1.1967097633E+02   1.3487498375E+02   1.0000000000E+01  1.651E-09   1.
3000001    1    4    0    0    0  -2.2397478453E+01   3.7645662283E+01   9.7511006747E+01   1.0690294368E+02   1.0000000000E+00     0.000   1.
3000022   2   4   0   0   0   -4.5486949545E+00   1.7526997662E+01   5.0579855423E+01   5.3724022070E+01   2.5000000000E-01   4.250627E+00   0.
3000001    1    5    0    0    0   1.1659384701E+01  -1.5517622815E+01   4.3626874361E+01   4.7760255820E+01   1.0000000000E+00     0.000  -1.
3000022   2   5   0   0   0   1.5286788707E+01   -3.9655037130E+01   7.6044101969E+01   8.7114727934E+01   2.5000000000E-01   8.674498E-01   0.
13    1    7    0    0    0  -2.4654438913E+00   9.6511712974E+00   2.7985983544E+01   2.9706056974E+01   1.0500000000E-01     0.000  -1.
-13    1    7    0    0    0  -2.0832510632E+00   7.8758263643E+00   2.2593871879E+01   2.4017965097E+01   1.0500000000E-01     0.000   1.
13    1    9    0    0    0   5.8902881889E+00  -1.5127533426E+01   2.9102586445E+01   3.3324305323E+01   1.0500000000E-01     0.000  -1.
-13    1    9    0    0    0   9.3965005180E+00  -2.4527503704E+01   4.6941515525E+01   5.3790422611E+01   1.0500000000E-01     0.000   1.
</event>
<event>
 13   1  9.2978750E-05  1.2500000E+02  7.5467720E-03  1.2380620E-01
   21   -1    0    0  502  501   0.0000000000E+00   0.0000000000E+00   6.1153618490E+01   6.1153618490E+01   0.0000000000E+00     0.000   1.
   21   -1    0    0  501  502   0.0000000000E+00   0.0000000000E+00  -6.3876023962E+01   6.3876023962E+01   0.0000000000E+00     0.000   1.
   25    2    1    2    0    0   0.0000000000E+00   0.0000000000E+00  -2.7224054718E+00   1.2502964245E+02   1.2500000000E+02  5.161E-08  -1.
3000002    2    3    0    0    0  -5.4243720424E+01  -2.8040455627E+01  -1.0172471198E+01   6.2706678492E+01   1.0000000000E+01  1.239E-09   1.
3000002    2    3    0    0    0   5.4243720424E+01   2.8040455627E+01   7.4500657263E+00   6.2322963958E+01   1.0000000000E+01  3.633E-10   1.
3000001    1    4    0    0    0  -1.6371791234E+01  -3.6032131670E+00  -2.2550884051E+00   1.6944146985E+01   1.0000000000E+00     0.000  -1.
3000022   2   4   0   0   0   -3.7871929190E+01   -2.4437242460E+01   -7.9173827930E+00   4.5762531507E+01   2.5000000000E-01   4.224049E+00   0.
3000001    1    5    0    0    0   5.1542633201E+00   1.3130280821E+00  -1.7252649064E+00   5.6804059815E+00   1.0000000000E+00     0.000  -1.
3000022   2   5   0   0   0   4.9089457104E+01   2.6727427545E+01   9.1753306327E+00   5.6642557977E+01   2.5000000000E-01   5.668788E+00   0.
13    1    7    0    0    0  -1.5838817159E+01  -1.0270913182E+01  -3.2666453681E+00   1.9158334572E+01   1.0500000000E-01     0.000   1.
-13    1    7    0    0    0  -2.2033112031E+01  -1.4166329277E+01  -4.6507374249E+00   2.6604196935E+01   1.0500000000E-01     0.000  -1.
13    1    9    0    0    0   2.6488320605E+01   1.4496849880E+01   4.9436352261E+00   3.0598044696E+01   1.0500000000E-01     0.000  -1.
-13    1    9    0    0    0   2.2601136499E+01   1.2230577664E+01   4.2316954066E+00   2.6044513281E+01   1.0500000000E-01     0.000   1.
</event>
<event>
 13   1  9.2978750E-05  1.2500000E+02  7.5467720E-03  1.2380620E-01
   21   -1    0    0  502  501   0.0000000000E+00   0.0000000000E+00   4.0355982164E+00   4.0355982164E+00   0.0000000000E+00     0.000   1.
   21   -1    0    0  501  502   0.0000000000E+00   0.0000000000E+00  -9.6794819270E+02   9.6794819270E+02   0.0000000000E+00     0.000   1.
   25    2    1    2    0    0   0.0000000000E+00   0.0000000000E+00  -9.6391259448E+02   9.7198379091E+02   1.2500000000E+02  2.372E-08  -1.
3000002    2    3    0    0    0   5.6205802033E+01   1.3218693627E+01  -3.1294529961E+02   3.1838433786E+02   1.0000000000E+01  4.056E-10   1.
3000002    2    3    0    0    0  -5.6205802033E+01  -1.3218693627E+01  -6.5096729487E+02   6.5359945305E+02   1.0000000000E+01  1.815E-10   1.
3000001    1    4    0    0    0   2.2871986543E+01   7.6449110805E+00  -1.0738428487E+02   1.1006342294E+02   1.0000000000E+00     0.000  -1.
3000022   2   4   0   0   0   3.3333815491E+01   5.5737825461E+00   -2.0556101475E+02   2.0832091491E+02   2.5000000000E-01   7.155883E+00   0.
3000001    1    5    0    0    0  -3.3608498448E+01  -1.1765776113E+01  -4.3098117476E+02   4.3245084998E+02   1.0000000000E+00     0.000   1.
3000022   2   5   0   0   0   -2.2597303585E+01   -1.4529175131E+00   -2.1998612011E+02   2.2114860307E+02   2.5000000000E-01   4.315742E-02   0.
13    1    7    0    0    0   2.4083028395E+01   3.9924389089E+00  -1.4836092531E+02   1.5035593440E+02   1.0500000000E-01     0.000   1.
-13    1    7    0    0    0   9.2507870955E+00   1.5813436371E+00  -5.7200089438E+01   5.7964980516E+01   1.0500000000E-01     0.000  -1.
13    1    9    0    0    0  -1.3332711818E+01  -7.9820823621E-01  -1.2951139853E+02   1.3019835527E+02   1.0500000000E-01     0.000  -1.
-13    1    9    0    0    0  -9.2645917678E+00  -6.5470927688E-01  -9.0474721575E+01   9.0950247795E+01   1.0500000000E-01     0.000   1.
</event>
<event>
 13   1  9.2978750E-05  1.2500000E+02  7.5467720E-03  1.2380620E-01
   21   -1    0    0  502  501   0.0000000000E+00   0.0000000000E+00   1.1728085262E+01   1.1728085262E+01   0.0000000000E+00     0.000   1.
   21   -1    0    0  501  502   0.0000000000E+00   0.0000000000E+00  -3.3306800834E+02   3.3306800834E+02   0.0000000000E+00     0.000   1.
   25    2    1    2    0    0   0.0000000000E+00   0.0000000000E+00  -3.2133992308E+02   3.4479609360E+02   1.2500000000E+02  2.562E-08  -1.
3000002    2    3    0    0    0  -3.7863918768E+01  -4.2401256319E+01  -9.4543450120E+01   1.1077006293E+02   1.0000000000E+01  2.267E-09   1.
3000002    2    3    0    0    0   3.7863918768E+01   4.2401256319E+01  -2.2679647296E+02   2.3402603067E+02   1.0000000000E+01  7.376E-10   1.
3000001    1    4    0    0    0  -3.7964499983E+01  -4.1530504227E+01  -9.4317257142E+01   1.0983092021E+02   1.0000000000E+00     0.000   1.
3000022   2   4   0   0   0   1.0058121418E-01   -8.7075209186E-01   -2.2619297807E-01   9.3914272049E-01   2.5000000000E-01   1.340559E+00   0.
3000001    1    5    0    0    0   2.9934656340E+01   3.6604734088E+01  -1.7348199614E+02   1.7981377365E+02   1.0000000000E+00     0.000   1.
3000022   2   5   0   0   0   7.9292624287E+00   5.7965222306E+00   -5.3314476815E+01   5.4212257016E+01   2.5000000000E-01   3.146226E+00   0.
13    1    7    0    0    0   1.1546905589E-01  -4.6895814665E-01  -1.5136594752E-01   5.1690569376E-01   1.0500000000E-01     0.000  -1.
-13    1    7    0    0    0  -1.4887841711E-02  -4.0179394521E-01  -7.4827030551E-02   4.2223702673E-01   1.0500000000E-01     0.000   1.
13    1    9    0    0    0   5.3998386199E+00   3.9201017643E+00  -3.6466537060E+01   3.7072156737E+01   1.0500000000E-01     0.000   1.
-13    1    9    0    0    0   2.5294238088E+00   1.8764204663E+00  -1.6847939755E+01   1.7140100279E+01   1.0500000000E-01     0.000  -1.
</event>
<event>
 13   1  9.2978750E-05  1.2500000E+02  7.5467720E-03  1.2380620E-01
   21   -1    0    0  502  501   0.0000000000E+00   0.0000000000E+00   4.9454153318E+01   4.9454153318E+01   0.0000000000E+00     0.000   1.
   21   -1    0    0  501  502   0.0000000000E+00   0.0000000000E+00  -7.8987299103E+01   7.8987299103E+01   0.0000000000E+00     0.000   1.
   25    2    1    2    0    0   0.0000000000E+00   0.0000000000E+00  -2.9533145786E+01   1.2844145242E+02   1.2500000000E+02  1.578E-08  -1.
3000002    2    3    0    0    0   2.9452048431E+01   5.1971334909E+01  -3.0612136328E+01   6.7864170956E+01   1.0000000000E+01  1.112E-10   1.
3000002    2    3    0    0    0  -2.9452048431E+01  -5.1971334909E+01   1.0789905416E+00   6.0577281464E+01   1.0000000000E+01  1.049E-10   1.
3000001    1    4    0    0    0   2.9294261155E+01   4.9164011829E+01  -3.0865023913E+01   6.5030019967E+01   1.0000000000E+00     0.000   1.
3000022   2   4   0   0   0   1.5778727624E-01   2.8073230797E+00   2.5288758521E-01   2.8341509891E+00   2.5000000000E-01   1.368089E+00   0.
3000001    1    5    0    0    0  -2.4439495892E+01  -4.8851150260E+01   1.4944764898E+00   5.4653063054E+01   1.0000000000E+00     0.000   1.
3000022   2   5   0   0   0   -5.0125525388E+00   -3.1201846484E+00   -4.1548594822E-01   5.9242184099E+00   2.5000000000E-01   5.912416E+00   0.
13    1    7    0    0    0   1.2773986736E-01   2.0607051509E+00   2.1783409201E-01   2.0787736491E+00   1.0500000000E-01     0.000  -1.
-13    1    7    0    0    0   3.0047408875E-02   7.4661792875E-01   3.5053493200E-02   7.5537733994E-01   1.0500000000E-01     0.000   1.
13    1    9    0    0    0  -3.7870406349E+00  -2.3282626851E+00  -3.1317500424E-01   4.4577558799E+00   1.0500000000E-01     0.000  -1.
-13    1    9    0    0    0  -1.2255119039E+00  -7.9192196337E-01  -1.0231094398E-01   1.4664625300E+00   1.0500000000E-01     0.000   1.
</event>
<event>
 13   1  9.2978750E-05  1.2500000E+02  7.5467720E-03  1.2380620E-01
   21   -1    0    0  502  501   0.0000000000E+00   0.0000000000E+00   5.5940015791E+01   5.5940015791E+01   0.0000000000E+00     0.000   1.
   21   -1    0    0  501  502   0.0000000000E+00   0.0000000000E+00  -6.9829261662E+01   6.9829261662E+01   0.0000000000E+00     0.000   1.
   25    2    1    2    0    0   0.0000000000E+00   0.0000000000E+00  -1.3889245871E+01   1.2576927745E+02   1.2500000000E+02  6.358E-08  -1.
3000002    2    3    0    0    0  -2.2939862864E+01  -5.2161856355E+01   1.6847327739E+01   6.0257190596E+01   1.0000000000E+01  4.158E-10   1.
3000002    2    3    0    0    0   2.2939862864E+01   5.2161856355E+01  -3.0736573610E+01   6.5512086854E+01   1.0000000000E+01  2.240E-10   1.
3000001    1    4    0    0    0  -1.0338964597E+01  -2.6847809829E+01   3.5382990139E+00   2.9003769435E+01   1.0000000000E+00     0.000  -1.
3000022   2   4   0   0   0   -1.2600898267E+01   -2.5314046526E+01   1.3309028726E+01   3.1253421161E+01   2.5000000000E-01   3.614886E+00   0.
3000001    1    5    0    0    0   9.7909801642E+00   3.2935695961E+01  -1.5729552109E+01   3.7802674119E+01   1.0000000000E+00     0.000   1.
3000022   2   5   0   0   0   1.3148882700E+01   1.9226160394E+01   -1.5007021502E+01   2.7709412735E+01   2.5000000000E-01   6.342868E-01   0.
13    1    7    0    0    0  -8.2697171853E+00  -1.6731006965E+01   8.7668664091E+00   2.0619985161E+01   1.0500000000E-01     0.000   1.
-13    1    7    0    0    0  -4.3311810812E+00  -8.5830395609E+00   4.5421623164E+00   1.0633436000E+01   1.0500000000E-01     0.000  -1.
13    1    9    0    0    0   5.3408747537E+00   7.7029153537E+00  -6.0155844929E+00   1.1138138528E+01   1.0500000000E-01     0.000  -1.
-13    1    9    0    0    0   7.8080079458E+00   1.1523245040E+01  -8.9914370089E+00   1.6571274207E+01   1.0500000000E-01     0.000   1.
</event>
<event>
 13   1  9.2978750E-05  1.2500000E+02  7.5467720E-03  1.2380620E-01
   21   -1    0    0  502  501   0.0000000000E+00   0.0000000000E+00   1.4658201012E+02   1.4658201012E+02   0.0000000000E+00     0.000   1.
   21   -1    0    0  501  502   0.0000000000E+00   0.0000000000E+00  -2.6648904575E+01   2.6648904575E+01   0.0000000000E+00     0.000   1.
   25    2    1    2    0    0   0.0000000000E+00   0.0000000000E+00   1.1993310554E+02   1.7323091469E+02   1.2500000000E+02  2.325E-08  -1.
3000002    2    3    0    0    0   2.6158104053E+01   5.5862412244E+01   6.1603079790E+01   8.7748475480E+01   1.0000000000E+01  2.381E-10  -1.
3000002    2    3    0    0    0  -2.6158104053E+01  -5.5862412244E+01   5.8330025750E+01   8.5482439210E+01   1.0000000000E+01  2.787E-10  -1.
3000001    1    4    0    0    0   1.5237132950E+01   2.1077816164E+01   2.5962973813E+01   3.6763032573E+01   1.0000000000E+00     0.000  -1.
3000022   2   4   0   0   0   1.0920971103E+01   3.4784596080E+01   3.5640105977E+01   5.0985442907E+01   2.5000000000E-01   8.015734E+00   0.
3000001    1    5    0    0    0  -1.6700516307E+01  -4.3948023361E+01   4.7240982423E+01   6.6656180677E+01   1.0000000000E+00     0.000  -1.
3000022   2   5   0   0   0   -9.4575877461E+00   -1.1914388883E+01   1.1089043327E+01   1.8826258533E+01   2.5000000000E-01   6.779524E-01   0.
13    1    7    0    0    0   5.0867460548E+00   1.6023457326E+01   1.6490795963E+01   2.3549597589E+01   1.0500000000E-01     0.000   1.
-13    1    7    0    0    0   5.8342250484E+00   1.8761138755E+01   1.9149310014E+01   2.7435845318E+01   1.0500000000E-01     0.000  -1.
13    1    9    0    0    0  -3.4680176500E+00  -4.2990546924E+00   3.9781806755E+00   6.8077870234E+00   1.0500000000E-01     0.000  -1.
-13    1    9    0    0    0  -5.9895700962E+00  -7.6153341909E+00   7.1108626515E+00   1.2018471510E+01   1.0500000000E-01     0.000   1.
</event>
<event>
 13   1  9.2978750E-05  1.2500000E+02  7.5467720E-03  1.2380620E-01
   21   -1    0    0  502  501   0.0000000000E+00   0.0000000000E+00   2.6007462274E+02   2.6007462274E+02   0.0000000000E+00     0.000  -1.
   21   -1    0    0  501  502   0.0000000000E+00   0.0000000000E+00  -1.5019727642E+01   1.5019727642E+01   0.0000000000E+00     0.000  -1.
   25    2    1    2    0    0   0.0000000000E+00   0.0000000000E+00   2.4505489509E+02   2.7509435038E+02   1.2500000000E+02  3.606E-08  -1.
3000002    2    3    0    0    0   5.7993566207E+01   2.5460639756E+00   7.6547267647E+01   9.6587889238E+01   1.0000000000E+01  3.632E-10   1.
3000002    2    3    0    0    0  -5.7993566207E+01  -2.5460639756E+00   1.6850762744E+02   1.7850646114E+02   1.0000000000E+01  1.327E-09   1.
3000001    1    4    0    0    0   4.6353936906E+01  -1.9954192509E+00   6.0374160025E+01   7.6149250577E+01   1.0000000000E+00     0.000   1.
3000022   2   4   0   0   0   1.1639629301E+01   4.5414832265E+00   1.6173107622E+01   2.0438638661E+01   2.5000000000E-01   9.925617E+00   0.
3000001    1    5    0    0    0  -3.7311063015E+00  -2.4288440858E+00   1.5730100834E+01   1.6378538093E+01   1.0000000000E+00     0.000   1.
3000022   2   5   0   0   0   -5.4262459905E+01   -1.1721988978E-01   1.5277752661E+02   1.6212792305E+02   2.5000000000E-01   2.299008E-01   0.
13    1    7    0    0    0   6.3367751852E+00   2.4040146432E+00   8.8060439534E+00   1.1112670303E+01   1.0500000000E-01     0.000   1.
-13    1    7    0    0    0   5.3028541157E+00   2.1374685833E+00   7.3670636685E+00   9.3259683579E+00   1.0500000000E-01     0.000  -1.
13    1    9    0    0    0  -3.6030778090E+01  -1.3182612369E-01   1.0145130694E+02   1.0765970951E+02   1.0500000000E-01     0.000   1.
-13    1    9    0    0    0  -1.8231681815E+01   1.4606233907E-02   5.1326219669E+01   5.4468213535E+01   1.0500000000E-01     0.000  -1.
</event>
<event>
 13   1  9.2978750E-05  1.2500000E+02  7.5467720E-03  1.2380620E-01
   21   -1    0    0  502  501   0.0000000000E+00   0.0000000000E+00   3.7361350873E+01   3.7361350873E+01   0.0000000000E+00     0.000   1.
   21   -1    0    0  501  502   0.0000000000E+00   0.0000000000E+00  -1.0455323238E+02   1.0455323238E+02   0.0000000000E+00     0.000   1.
   25    2    1    2    0    0   0.0000000000E+00   0.0000000000E+00  -6.7191881511E+01   1.4191458326E+02   1.2500000000E+02  2.202E-07  -1.
3000002    2    3    0    0    0  -2.5788593644E+01   5.5678435210E+01  -2.6316596028E+01   6.7510761632E+01   1.0000000000E+01  6.575E-11  -1.
3000002    2    3    0    0    0   2.5788593644E+01  -5.5678435210E+01  -4.0875285483E+01   7.4403821628E+01   1.0000000000E+01  3.453E-09  -1.
3000001    1    4    0    0    0  -1.5543837237E+00   1.1035399486E+01  -2.8003550100E+00   1.1534216001E+01   1.0000000000E+00     0.000  -1.
3000022   2   4   0   0   0   -2.4234209921E+01   4.4643035725E+01   -2.3516241018E+01   5.5976545631E+01   2.5000000000E-01   6.523567E+00   0.
3000001    1    5    0    0    0   4.6344950619E+00  -1.6041967367E+01  -1.5495535140E+01   2.2802080404E+01   1.0000000000E+00     0.000   1.
3000022   2   5   0   0   0   2.1154098582E+01   -3.9636467843E+01   -2.5379750343E+01   5.1601741224E+01   2.5000000000E-01   5.993064E-01   0.
13    1    7    0    0    0  -1.1270621341E+01   2.0847387374E+01  -1.1030514401E+01   2.6140461715E+01   1.0500000000E-01     0.000   1.
-13    1    7    0    0    0  -1.2963588580E+01   2.3795648351E+01  -1.2485726617E+01   2.9836083916E+01   1.0500000000E-01     0.000  -1.
13    1    9    0    0    0   1.5476010190E+01  -2.9065935947E+01  -1.8616300794E+01   3.7827413395E+01   1.0500000000E-01     0.000  -1.
-13    1    9    0    0    0   5.6780883919E+00  -1.0570531896E+01  -6.7634495492E+00   1.3774327830E+01   1.0500000000E-01     0.000   1.
</event>
<event>
 13   1  9.2978750E-05  1.2500000E+02  7.5467720E-03  1.2380620E-01
   21   -1    0    0  502  501   0.0000000000E+00   0.0000000000E+00   2.1976787438E+01   2.1976787438E+01   0.0000000000E+00     0.000  -1.
   21   -1    0    0  501  502   0.0000000000E+00   0.0000000000E+00  -1.7774435918E+02   1.7774435918E+02   0.0000000000E+00     0.000  -1.
   25    2    1    2    0    0   0.0000000000E+00   0.0000000000E+00  -1.5576757174E+02   1.9972114662E+02   1.2500000000E+02  1.259E-07  -1.
3000002    2    3    0    0    0   6.0801287263E+01  -7.5391132484E+00  -6.6294149471E+01   9.0821522865E+01   1.0000000000E+01  2.877E-10  -1.
3000002    2    3    0    0    0  -6.0801287263E+01   7.5391132484E+00  -8.9473422269E+01   1.0889962375E+02   1.0000000000E+01  1.414E-10  -1.
3000001    1    4    0    0    0   1.9314101403E+01  -7.5209893382E-02  -1.5302725909E+01   2.4661986736E+01   1.0000000000E+00     0.000  -1.
3000022   2   4   0   0   0   4.1487185860E+01   -7.4639033551E+00   -5.0991423562E+01   6.6159536129E+01   2.5000000000E-01   7.170289E-01   0.
3000001    1    5    0    0    0  -6.5776719595E+00   3.9059147125E+00  -1.0304113997E+01   1.2872323155E+01   1.0000000000E+00     0.000   1.
3000022   2   5   0   0   0   -5.4223615304E+01   3.6331985359E+00   -7.9169308271E+01   9.6027300599E+01   2.5000000000E-01   7.230113E+00   0.
13    1    7    0    0    0   2.8728439400E+01  -5.1227531464E+00  -3.5274207872E+01   4.5780417169E+01   1.0500000000E-01     0.000  -1.
-13    1    7    0    0    0   1.2758746460E+01  -2.3411502087E+00  -1.5717215691E+01   2.0379118960E+01   1.0500000000E-01     0.000   1.
13    1    9    0    0    0  -3.5858434615E+01   2.3858768285E+00  -5.2261571504E+01   6.3425567576E+01   1.0500000000E-01     0.000   1.
-13    1    9    0    0    0  -1.8365180689E+01   1.2473217074E+00  -2.6907736767E+01   3.2601733023E+01   1.0500000000E-01     0.000  -1.
</event>
<event>
 13   1  9.2978750E-05  1.2500000E+02  7.5467720E-03  1.2380620E-01
   21   -1    0    0  502  501   0.0000000000E+00   0.0000000000E+00   1.9412813435E+01   1.9412813435E+01   0.0000000000E+00     0.000   1.
   21   -1    0    0  501  502   0.0000000000E+00   0.0000000000E+00  -2.0122018959E+02   2.0122018959E+02   0.0000000000E+00     0.000   1.
   25    2    1    2    0    0   0.0000000000E+00   0.0000000000E+00  -1.8180737616E+02   2.2063300303E+02   1.2500000000E+02  1.125E-08  -1.
3000002    2    3    0    0    0  -1.1609691248E+00   7.7339348859E+00  -1.9892053604E+02   1.9932521480E+02   1.0000000000E+01  9.923E-10   1.
3000002    2    3    0    0    0   1.1609691248E+00  -7.7339348859E+00   1.7113159879E+01   2.1307788228E+01   1.0000000000E+01  9.403E-10   1.
3000001    1    4    0    0    0   1.4254428387E+00   5.6235462192E+00  -4.6926205601E+01   4.7294026383E+01   1.0000000000E+00     0.000   1.
3000022   2   4   0   0   0   -2.5864119636E+00   2.1103886667E+00   -1.5199433044E+02   1.5203118842E+02   2.5000000000E-01   3.071377E+00   0.
3000001    1    5    0    0    0   3.6720686815E+00  -6.9751555337E+00   6.1931186938E+00   1.0074304059E+01   1.0000000000E+00     0.000   1.
3000022   2   5   0   0   0   -2.5110995567E+00   -7.5877935223E-01   1.0920041185E+01   1.1233484169E+01   2.5000000000E-01   8.398996E+00   0.
13    1    7    0    0    0  -1.0838295136E+00   9.3561768240E-01  -6.7591831191E+01   6.7607076077E+01   1.0500000000E-01     0.000  -1.
-13    1    7    0    0    0  -1.5025824500E+00   1.1747709843E+00  -8.4402499246E+01   8.4424112343E+01   1.0500000000E-01     0.000   1.
13    1    9    0    0    0  -1.4211025972E+00  -4.3390701138E-01   6.4586521303E+00   6.6281988674E+00   1.0500000000E-01     0.000  -1.
-13    1    9    0    0    0  -1.0899969595E+00  -3.2487234085E-01   4.4613890544E+00   4.6052853011E+00   1.0500000000E-01     0.000   1.
</event>
<event>
 13   1  9.2978750E-05  1.2500000E+02  7.5467720E-03  1.2380620E-01
   21   -1    0    0  502  501   0.0000000000E+00   0.0000000000E+00   2.6669086827E+01   2.6669086827E+01   0.0000000000E+00     0.000   1.
   21   -1    0    0  501  502   0.0000000000E+00   0.0000000000E+00  -1.4647108187E+02   1.4647108187E+02   0.0000000000E+00     0.000   1.
   25    2    1    2    0    0   0.0000000000E+00   0.0000000000E+00  -1.1980199504E+02   1.7314016870E+02   1.2500000000E+02  6.200E-08  -1.
3000002    2    3    0    0    0  -2.0181983767E+01   5.8201220531E+01  -6.4609485320E+01   8.9828058720E+01   1.0000000000E+01  7.031E-10  -1.
3000002    2    3    0    0    0   2.0181983767E+01  -5.8201220531E+01  -5.5192509720E+01   8.3312109980E+01   1.0000000000E+01  8.737E-10  -1.
3000001    1    4    0    0    0  -1.2314093043E+01   3.4299356987E+01  -4.5065443838E+01   5.7965308638E+01   1.0000000000E+00     0.000   1.
3000022   2   4   0   0   0   -7.8678907234E+00   2.3901863545E+01   -1.9544041482E+01   3.1862750082E+01   2.5000000000E-01   7.047639E-02   0.
3000001    1    5    0    0    0   1.9154897438E+01  -4.2016214142E+01  -4.1012850592E+01   6.1768327324E+01   1.0000000000E+00     0.000   1.
3000022   2   5   0   0   0   1.0270863290E+00   -1.6185006390E+01   -1.4179659128E+01   2.1543782656E+01   2.5000000000E-01   1.898663E+00   0.
13    1    7    0    0    0  -4.8217321148E+00   1.4452180810E+01  -1.1816731613E+01   1.9281099600E+01   1.0500000000E-01     0.000  -1.
-13    1    7    0    0    0  -3.0461586086E+00   9.4496827345E+00  -7.7273098690E+00   1.2581650482E+01   1.0500000000E-01     0.000   1.
13    1    9    0    0    0   6.0879825300E-01  -8.6595528275E+00  -7.5472927161E+00   1.1503527408E+01   1.0500000000E-01     0.000   1.
-13    1    9    0    0    0   4.1828807596E-01  -7.5254535620E+00  -6.6323664114E+00   1.0040255248E+01   1.0500000000E-01     0.000  -1.
</event>
<event>
 13   1  9.2978750E-05  1.2500000E+02  7.5467720E-03  1.2380620E-01
   21   -1    0    0  502  501   0.0000000000E+00   0.0000000000E+00   1.0539869945E+01   1.0539869945E+01   0.0000000000E+00     0.000  -1.
   21   -1    0    0  501  502   0.0000000000E+00   0.0000000000E+00  -3.7061652755E+02   3.7061652755E+02   0.0000000000E+00     0.000  -1.
   25    2    1    2    0    0   0.0000000000E+00   0.0000000000E+00  -3.6007665760E+02   3.8115639749E+02   1.2500000000E+02  2.333E-08  -1.
3000002    2    3    0    0    0  -1.3685023509E+01  -4.7097610255E+01  -2.9416285275E+02   2.9839110023E+02   1.0000000000E+01  7.744E-11   1.
3000002    2    3    0    0    0   1.3685023509E+01   4.7097610255E+01  -6.5913804849E+01   8.2765297256E+01   1.0000000000E+01  1.406E-09   1.
3000001    1    4    0    0    0   9.6896668361E-01  -8.8263692781E+00  -4.4685849388E+01   4.5570481966E+01   1.0000000000E+00     0.000   1.
3000022   2   4   0   0   0   -1.4653990192E+01   -3.8271240977E+01   -2.4947700336E+02   2.5282061827E+02   2.5000000000E-01   4.636675E+00   0.
3000001    1    5    0    0    0   6.8151000865E+00   1.2382767866E+01  -2.4387546753E+01   2.8205158497E+01   1.0000000000E+00     0.000   1.
3000022   2   5   0   0   0   6.8699234221E+00   3.4714842389E+01   -4.1526258095E+01   5.4560138758E+01   2.5000000000E-01   2.386398E+00   0.
13    1    7    0    0    0  -6.8140923560E+00  -1.7703084832E+01  -1.1583829456E+02   1.1738122754E+02   1.0500000000E-01     0.000   1.
-13    1    7    0    0    0  -7.8398978362E+00  -2.0568156145E+01  -1.3363870880E+02   1.3543939073E+02   1.0500000000E-01     0.000  -1.
13    1    9    0    0    0   2.1133793898E+00   1.0725921592E+01  -1.2901655870E+01   1.6910810615E+01   1.0500000000E-01     0.000  -1.
-13    1    9    0    0    0   4.7565440323E+00   2.3988920797E+01  -2.8624602225E+01   3.7649328144E+01   1.0500000000E-01     0.000   1.
</event>
<event>
 13   1  9.2978750E-05  1.2500000E+02  7.5467720E-03  1.2380620E-01
   21   -1    0    0  502  501   0.0000000000E+00   0.0000000000E+00   9.9729615369E+00   9.9729615369E+00   0.0000000000E+00     0.000  -1.
   21   -1    0    0  501  502   0.0000000000E+00   0.0000000000E+00  -3.9168405348E+02   3.9168405348E+02   0.0000000000E+00     0.000  -1.
   25    2    1    2    0    0   0.0000000000E+00   0.0000000000E+00  -3.8171109195E+02   4.0165701502E+02   1.2500000000E+02  6.062E-08  -1.
3000002    2    3    0    0    0  -5.8157617673E+01  -7.3734761141E+00  -1.2908297598E+02   1.4212350731E+02   1.0000000000E+01  2.994E-10  -1.
3000002    2    3    0    0    0   5.8157617673E+01   7.3734761141E+00  -2.5262811597E+02   2.5953350771E+02   1.0000000000E+01  4.033E-10  -1.
3000001    1    4    0    0    0  -2.4262084673E+01  -7.8061605675E+00  -5.8710511186E+01   6.4011788127E+01   1.0000000000E+00     0.000   1.
3000022   2   4   0   0   0   -3.3895533000E+01   4.3268445337E-01   -7.0372464790E+01   7.8111719184E+01   2.5000000000E-01   1.824083E+00   0.
3000001    1    5    0    0    0   7.9165037000E+00   3.6689614725E+00  -2.8977464973E+01   3.0279131186E+01   1.0000000000E+00     0.000   1.
3000022   2   5   0   0   0   5.0241113973E+01   3.7045146416E+00   -2.2365065100E+02   2.2925437652E+02   2.5000000000E-01   3.320316E+00   0.
13    1    7    0    0    0  -1.8093304017E+01   2.5752278471E-01  -3.7422644049E+01   4.1568007901E+01   1.0500000000E-01     0.000  -1.
-13    1    7    0    0    0  -1.5802228983E+01   1.7516166866E-01  -3.2949820741E+01   3.6543711283E+01   1.0500000000E-01     0.000   1.
13    1    9    0    0    0   1.5077729305E+01   1.0771887128E+00  -6.7246555533E+01   6.8924658234E+01   1.0500000000E-01     0.000   1.
-13    1    9    0    0    0   3.5163384668E+01   2.6273259288E+00  -1.5640409547E+02   1.6032971829E+02   1.0500000000E-01     0.000  -1.
</event>
<event>
 13   1  9.2978750E-05  1.2500000E+02  7.5467720E-03  1.2380620E-01
   21   -1    0    0  502  501   0.0000000000E+00   0.0000000000E+00   2.2707542515E+02   2.2707542515E+02   0.0000000000E+00     0.000  -1.
   21   -1    0    0  501  502   0.0000000000E+00   0.0000000000E+00  -1.7202433938E+01   1.7202433938E+01   0.0000000000E+00     0.000  -1.
   25    2    1    2    0    0   0.0000000000E+00   0.0000000000E+00   2.0987299121E+02   2.4427785909E+02   1.2500000000E+02  5.123E-09  -1.
3000002    2    3    0    0    0   5.6313233728E+01  -1.0693283920E+00   5.5733283219E+01   7.9865653534E+01   1.0000000000E+01  1.334E-09   1.
3000002    2    3    0    0    0  -5.6313233728E+01   1.0693283920E+00   1.5413970799E+02   1.6441220556E+02   1.0000000000E+01  6.781E-10   1.
3000001    1    4    0    0    0   3.0200641743E+01  -4.5206860235E-01   2.2942809898E+01   3.7942794491E+01   1.0000000000E+00     0.000   1.
3000022   2   4   0   0   0   2.6112591984E+01   -6.1725978963E-01   3.2790473321E+01   4.1922859044E+01   2.5000000000E-01   1.909402E+00   0.
3000001    1    5    0    0    0  -3.3792220380E+01   3.4254727054E+00   8.0753086902E+01   8.7611124098E+01   1.0000000000E+00     0.000   1.
3000022   2   5   0   0   0   -2.2521013348E+01   -2.3561443134E+00   7.3386621089E+01   7.6801081458E+01   2.5000000000E-01   5.296897E+00   0.
13    1    7    0    0    0   1.0414580171E+01  -1.8335686253E-01   1.3082523687E+01   1.6723054473E+01   1.0500000000E-01     0.000   1.
-13    1    7    0    0    0   1.5698011813E+01  -4.3390292710E-01   1.9707949634E+01   2.5199804571E+01   1.0500000000E-01     0.000  -1.
13    1    9    0    0    0  -1.0668391078E+01  -1.1445259045E+00   3.4981607097E+01   3.6590276957E+01   1.0500000000E-01     0.000   1.
-13    1    9    0    0    0  -1.1852622270E+01  -1.2116184088E+00   3.8405013993E+01   4.0210804501E+01   1.0500000000E-01     0.000  -1.
</event>
<event>
 13   1  9.2978750E-05  1.2500000E+02  7.5467720E-03  1.2380620E-01
   21   -1    0    0  502  501   0.0000000000E+00   0.0000000000E+00   1.3398215317E+01   1.3398215317E+01   0.0000000000E+00     0.000   1.
   21   -1    0    0  501  502   0.0000000000E+00   0.0000000000E+00  -2.9155002421E+02   2.9155002421E+02   0.0000000000E+00     0.000   1.
   25    2    1    2    0    0   0.0000000000E+00   0.0000000000E+00  -2.7815180889E+02   3.0494823953E+02   1.2500000000E+02  1.202E-08  -1.
3000002    2    3    0    0    0  -5.7576639252E+01   2.1012359702E+01  -1.5626786443E+02   1.6815538678E+02   1.0000000000E+01  2.228E-10   1.
3000002    2    3    0    0    0   5.7576639252E+01  -2.1012359702E+01  -1.2188394446E+02   1.3679285275E+02   1.0000000000E+01  3.378E-09   1.
3000001    1    4    0    0    0  -3.5481959535E+01   7.7549248549E+00  -9.1392499471E+01   9.8349871741E+01   1.0000000000E+00     0.000   1.
3000022   2   4   0   0   0   -2.2094679717E+01   1.3257434847E+01   -6.4875364962E+01   6.9805515036E+01   2.5000000000E-01   1.006152E-01   0.
3000001    1    5    0    0    0   5.4497081910E+01  -1.9221908600E+01  -1.1863670259E+02   1.3196621124E+02   1.0000000000E+00     0.000  -1.
3000022   2   5   0   0   0   3.0795573423E+00   -1.7904511021E+00   -3.2472418665E+00   4.8266415149E+00   2.5000000000E-01   8.670801E-01   0.
13    1    7    0    0    0  -1.3500301634E+01   8.1497758328E+00  -3.9825457845E+01   4.2834041461E+01   1.0500000000E-01     0.000   1.
-13    1    7    0    0    0  -8.5943780836E+00   5.1076590140E+00  -2.5049907117E+01   2.6971473576E+01   1.0500000000E-01     0.000  -1.
13    1    9    0    0    0   1.5306464733E+00  -9.6334302796E-01  -1.6797052537E+00   2.4704945162E+00   1.0500000000E-01     0.000   1.
-13    1    9    0    0    0   1.5489108691E+00  -8.2710807412E-01  -1.5675366128E+00   2.3561469986E+00   1.0500000000E-01     0.000  -1.
</event>
<event>
 13   1  9.2978750E-05  1.2500000E+02  7.5467720E-03  1.2380620E-01
   21   -1    0    0  502  501   0.0000000000E+00   0.0000000000E+00   1.2508261556E+02   1.2508261556E+02   0.0000000000E+00     0.000  -1.
   21   -1    0    0  501  502   0.0000000000E+00   0.0000000000E+00  -3.1229359752E+01   3.1229359752E+01   0.0000000000E+00     0.000  -1.
   25    2    1    2    0    0   0.0000000000E+00   0.0000000000E+00   9.3853255805E+01   1.5631197531E+02   1.2500000000E+02  1.517E-08  -1.
3000002    2    3    0    0    0   8.3391848857E+00   3.7518181038E+01  -1.3423160913E+01   4.1920605457E+01   1.0000000000E+01  1.257E-10  -1.
3000002    2    3    0    0    0  -8.3391848857E+00  -3.7518181038E+01   1.0727641672E+02   1.1439136985E+02   1.0000000000E+01  1.227E-10  -1.
3000001    1    4    0    0    0   7.0193378082E-01   2.4101074092E+01  -9.8965729033E+00   2.6082496787E+01   1.0000000000E+00     0.000   1.
3000022   2   4   0   0   0   7.6372511049E+00   1.3417106946E+01   -3.5265880100E+00   1.5838108670E+01   2.5000000000E-01   1.078805E+00   0.
3000001    1    5    0    0    0  -1.8304748343E+00  -2.8455567442E+01   7.5415328787E+01   8.0632138584E+01   1.0000000000E+00     0.000  -1.
3000022   2   5   0   0   0   -6.5087100515E+00   -9.0626135964E+00   3.1861087931E+01   3.3759231269E+01   2.5000000000E-01   1.698748E+00   0.
13    1    7    0    0    0   5.5235348529E+00   9.7165758271E+00  -2.5141678599E+00   1.1456585360E+01   1.0500000000E-01     0.000  -1.
-13    1    7    0    0    0   2.1137162520E+00   3.7005311192E+00  -1.0124201502E+00   4.3815233103E+00   1.0500000000E-01     0.000   1.
13    1    9    0    0    0  -3.0393842698E+00  -4.3449075475E+00   1.5095416553E+01   1.5999959508E+01   1.0500000000E-01     0.000   1.
-13    1    9    0    0    0  -3.4693257817E+00  -4.7177060489E+00   1.6765671378E+01   1.7759271761E+01   1.0500000000E-01     0.000  -1.
</event>
<event>
 13   1  9.2978750E-05  1.2500000E+02  7.5467720E-03  1.2380620E-01
   21   -1    0    0  502  501   0.0000000000E+00   0.0000000000E+00   1.3515789568E+01   1.3515789568E+01   0.0000000000E+00     0.000   1.
   21   -1    0    0  501  502   0.0000000000E+00   0.0000000000E+00  -2.8901382197E+02   2.8901382197E+02   0.0000000000E+00     0.000   1.
   25    2    1    2    0    0   0.0000000000E+00   0.0000000000E+00  -2.7549803240E+02   3.0252961154E+02   1.2500000000E+02  1.228E-08  -1.
3000002    2    3    0    0    0  -8.6998639028E+00   2.5567476558E+00  -2.8544347253E+02   2.8576248984E+02   1.0000000000E+01  4.827E-10   1.
3000002    2    3    0    0    0   8.6998639028E+00  -2.5567476558E+00   9.9454401331E+00   1.6767121695E+01   1.0000000000E+01  1.501E-10   1.
3000001    1    4    0    0    0  -1.5387535824E+00   2.0769781892E+00  -1.9957129833E+02   1.9959054265E+02   1.0000000000E+00     0.000   1.
3000022   2   4   0   0   0   -7.1611103204E+00   4.7976946661E-01   -8.5872174206E+01   8.6171947190E+01   2.5000000000E-01   4.064340E+00   0.
3000001    1    5    0    0    0   8.2605155370E+00   2.2186708106E+00   5.4637758321E+00   1.0198601053E+01   1.0000000000E+00     0.000   1.
3000022   2   5   0   0   0   4.3934836581E-01   -4.7754184664E+00   4.4816643010E+00   6.5685206419E+00   2.5000000000E-01   1.039312E-01   0.
13    1    7    0    0    0  -1.8734692273E+00   1.5810058668E-01  -2.2542386666E+01   2.2620899724E+01   1.0500000000E-01     0.000  -1.
-13    1    7    0    0    0  -5.2876410930E+00   3.2166887992E-01  -6.3329787540E+01   6.3551047466E+01   1.0500000000E-01     0.000   1.
13    1    9    0    0    0   2.4881424568E-01  -3.2098148835E+00   3.0405854047E+00   4.4295603302E+00   1.0500000000E-01     0.000   1.
-13    1    9    0    0    0   1.9053412012E-01  -1.5656035830E+00   1.4410788963E+00   2.1389603117E+00   1.0500000000E-01     0.000  -1.
</event>
<event>
 13   1  9.2978750E-05  1.2500000E+02  7.5467720E-03  1.2380620E-01
   21   -1    0    0  502  501   0.0000000000E+00   0.0000000000E+00   7.0195178744E+01   7.0195178744E+01   0.0000000000E+00     0.000   1.
   21   -1    0    0  501  502   0.0000000000E+00   0.0000000000E+00  -5.5648408764E+01   5.5648408764E+01   0.0000000000E+00     0.000   1.
   25    2    1    2    0    0   0.0000000000E+00   0.0000000000E+00   1.4546769980E+01   1.2584358751E+02   1.2500000000E+02  6.724E-09  -1.
3000002    2    3    0    0    0  -1.6874713460E+00   5.0982309744E+01  -2.7662485355E+01   5.8883415002E+01   1.0000000000E+01  8.393E-10  -1.
3000002    2    3    0    0    0   1.6874713460E+00  -5.0982309744E+01   4.2209255335E+01   6.6960172508E+01   1.0000000000E+01  2.475E-10  -1.
3000001    1    4    0    0    0  -1.1132032958E+00   4.4216503589E+01  -2.7489313873E+01   5.2086474141E+01   1.0000000000E+00     0.000  -1.
3000022   2   4   0   0   0   -5.7426805026E-01   6.7658061542E+00   -1.7317148196E-01   6.7969408613E+00   2.5000000000E-01   6.363916E+00   0.
3000001    1    5    0    0    0   5.5152987633E+00  -2.3489995115E+01   1.7871395553E+01   3.0043055270E+01   1.0000000000E+00     0.000   1.
3000022   2   5   0   0   0   -3.8278274172E+00   -2.7492314629E+01   2.4337859781E+01   3.6917117237E+01   2.5000000000E-01   7.847860E+00   0.
13    1    7    0    0    0  -2.8014121966E-01   3.6375815384E+00  -3.2181621358E-02   3.6500053710E+00   1.0500000000E-01     0.000   1.
-13    1    7    0    0    0  -2.9412683060E-01   3.1282246158E+00  -1.4098986060E-01   3.1469354903E+00   1.0500000000E-01     0.000  -1.
13    1    9    0    0    0  -1.7333884209E+00  -1.2264393155E+01   1.0942033509E+01   1.6527525440E+01   1.0500000000E-01     0.000   1.
-13    1    9    0    0    0  -2.0944389964E+00  -1.5227921474E+01   1.3395826273E+01   2.0389591797E+01   1.0500000000E-01     0.000  -1.
</event>
<event>
 13   1  9.2978750E-05  1.2500000E+02  7.5467720E-03  1.2380620E-01
   21   -1    0    0  502  501   0.0000000000E+00   0.0000000000E+00   1.4660606654E+02   1.4660606654E+02   0.0000000000E+00     0.000  -1.
   21   -1    0    0  501  502   0.0000000000E+00   0.0000000000E+00  -2.6644531786E+01   2.6644531786E+01   0.0000000000E+00     0.000  -1.
   25    2    1    2    0    0   0.0000000000E+00   0.0000000000E+00   1.1996153476E+02   1.7325059833E+02   1.2500000000E+02  9.587E-09  -1.
3000002    2    3    0    0    0  -1.1676706084E+01  -6.0173820001E+01   5.0277157770E+01   7.9906361899E+01   1.0000000000E+01  9.283E-11  -1.
3000002    2    3    0    0    0   1.1676706084E+01   6.0173820001E+01   6.9684376990E+01   9.3344236431E+01   1.0000000000E+01  3.314E-10  -1.
3000001    1    4    0    0    0  -4.8749055992E+00  -1.6468182121E+01   1.9587890168E+01   2.6070120219E+01   1.0000000000E+00     0.000   1.
3000022   2   4   0   0   0   -6.8018004849E+00   -4.3705637879E+01   3.0689267602E+01   5.3836241680E+01   2.5000000000E-01   2.733622E+00   0.
3000001    1    5    0    0    0   8.5692798531E+00   5.5110355365E+01   5.9557833456E+01   8.1600976414E+01   1.0000000000E+00     0.000   1.
3000022   2   5   0   0   0   3.1074262309E+00   5.0634646355E+00   1.0126543534E+01   1.1743260018E+01   2.5000000000E-01   5.148265E+00   0.
13    1    7    0    0    0  -4.0835205918E+00  -2.6623767894E+01   1.8665167747E+01   3.2770408439E+01   1.0500000000E-01     0.000   1.
-13    1    7    0    0    0  -2.7182798931E+00  -1.7081869986E+01   1.2024099855E+01   2.1065833240E+01   1.0500000000E-01     0.000  -1.
13    1    9    0    0    0   1.7410007096E+00   2.9461500211E+00   5.7692633680E+00   6.7086741035E+00   1.0500000000E-01     0.000  -1.
-13    1    9    0    0    0   1.3664255213E+00   2.1173146144E+00   4.3572801663E+00   5.0345859144E+00   1.0500000000E-01     0.000   1.
</event>
<event>
 13   1  9.2978750E-05  1.2500000E+02  7.5467720E-03  1.2380620E-01
   21   -1    0    0  502  501   0.0000000000E+00   0.0000000000E+00   7.8594952476E+01   7.8594952476E+01   0.0000000000E+00     0.000   1.
   21   -1    0    0  501  502   0.0000000000E+00   0.0000000000E+00  -4.9701028844E+01   4.9701028844E+01   0.0000000000E+00     0.000   1.
   25    2    1    2    0    0   0.0000000000E+00   0.0000000000E+00   2.8893923632E+01   1.2829598132E+02   1.2500000000E+02  9.490E-09  -1.
3000002    2    3    0    0    0  -5.6097028064E+01  -3.7018132750E+00  -1.1633084060E+01   5.8274425127E+01   1.0000000000E+01  3.683E-10   1.
3000002    2    3    0    0    0   5.6097028064E+01   3.7018132750E+00   4.0527007692E+01   7.0021556193E+01   1.0000000000E+01  1.028E-09   1.
3000001    1    4    0    0    0  -2.9278556274E+01  -3.2462701652E+00  -1.0946983198E+01   3.1442146375E+01   1.0000000000E+00     0.000  -1.
3000022   2   4   0   0   0   -2.6818471790E+01   -4.5554310979E-01   -6.8610086180E-01   2.6832278753E+01   2.5000000000E-01   5.704996E+00   0.
3000001    1    5    0    0    0   3.8657731246E+01   9.7635992421E-02   2.2792109157E+01   4.4887748414E+01   1.0000000000E+00     0.000   1.
3000022   2   5   0   0   0   1.7439296819E+01   3.6041772826E+00   1.7734898535E+01   2.5133807779E+01   2.5000000000E-01   9.753491E+00   0.
13    1    7    0    0    0  -1.4690912215E+01  -2.7857382747E-01  -3.1570854680E-01   1.4697319551E+01   1.0500000000E-01     0.000  -1.
-13    1    7    0    0    0  -1.2127559575E+01  -1.7696928232E-01  -3.7039231500E-01   1.2134959202E+01   1.0500000000E-01     0.000   1.
13    1    9    0    0    0   1.3118357211E+01   2.7096181064E+00   1.3374742480E+01   1.8929555928E+01   1.0500000000E-01     0.000  -1.
-13    1    9    0    0    0   4.3209396074E+00   8.9455917618E-01   4.3601560546E+00   6.2042518511E+00   1.0500000000E-01     0.000   1.
</event>
<event>
 13   1  9.2978750E-05  1.2500000E+02  7.5467720E-03  1.2380620E-01
   21   -1    0    0  502  501   0.0000000000E+00   0.0000000000E+00   1.7440779914E+02   1.7440779914E+02   0.0000000000E+00     0.000   1.
   21   -1    0    0  501  502   0.0000000000E+00   0.0000000000E+00  -2.2397220877E+01   2.2397220877E+01   0.0000000000E+00     0.000   1.
   25    2    1    2    0    0   0.0000000000E+00   0.0000000000E+00   1.5201057826E+02   1.9680502002E+02   1.2500000000E+02  7.486E-08  -1.
3000002    2    3    0    0    0  -4.4325605837E+01   1.2621391348E+01   1.1430375991E+01   4.8525378388E+01   1.0000000000E+01  1.856E-10  -1.
3000002    2    3    0    0    0   4.4325605837E+01  -1.2621391348E+01   1.4058020227E+02   1.4827964163E+02   1.0000000000E+01  6.579E-10  -1.
3000001    1    4    0    0    0  -4.2231318610E+01   1.3485818286E+01   1.2405478712E+01   4.6046144990E+01   1.0000000000E+00     0.000  -1.
3000022   2   4   0   0   0   -2.0942872274E+00   -8.6442693818E-01   -9.7510272172E-01   2.4792333977E+00   2.5000000000E-01   7.595831E+00   0.
3000001    1    5    0    0    0   4.2498007326E+01  -1.3224654369E+01   1.3828119323E+02   1.4527098991E+02   1.0000000000E+00     0.000  -1.
3000022   2   5   0   0   0   1.8275985113E+00   6.0326302098E-01   2.2990090412E+00   3.0086517184E+00   2.5000000000E-01   2.188337E+00   0.
13    1    7    0    0    0  -6.1249955651E-01  -2.4271152539E-01  -2.3971001853E-01   7.0890795190E-01   1.0500000000E-01     0.000  -1.
-13    1    7    0    0    0  -1.4817876709E+00  -6.2171541279E-01  -7.3539270319E-01   1.7703254458E+00   1.0500000000E-01     0.000   1.
13    1    9    0    0    0   8.3412792467E-01   2.2214232970E-01   9.6412736549E-01   1.2983386254E+00   1.0500000000E-01     0.000   1.
-13    1    9    0    0    0   9.9347058667E-01   3.8112069128E-01   1.3348816757E+00   1.7103130930E+00   1.0500000000E-01     0.000  -1.
</event>
<event>
 13   1  9.2978750E-05  1.2500000E+02  7.5467720E-03  1.2380620E-01
   21   -1    0    0  502  501   0.0000000000E+00   0.0000000000E+00   1.2987014186E+02   1.2987014186E+02   0.0000000000E+00     0.000   1.
   21   -1    0    0  501  502   0.0000000000E+00   0.0000000000E+00  -3.0078122223E+01   3.0078122223E+01   0.0000000000E+00     0.000   1.
   25    2    1    2    0    0   0.0000000000E+00   0.0000000000E+00   9.9792019638E+01   1.5994826408E+02   1.2500000000E+02  5.556E-08  -1.
3000002    2    3    0    0    0   5.4109333649E+01   8.1713045812E+00   8.6350962143E+01   1.0271844464E+02   1.0000000000E+01  1.033E-09  -1.
3000002    2    3    0    0    0  -5.4109333649E+01  -8.1713045812E+00   1.3441057495E+01   5.7229819439E+01   1.0000000000E+01  1.289E-09  -1.
3000001    1    4    0    0    0   1.8415856994E+00  -1.3205483268E+00   3.2031801329E+00   4.0491540765E+00   1.0000000000E+00     0.000  -1.
3000022   2   4   0   0   0   5.2267747949E+01   9.4918529079E+00   8.3147782010E+01   9.8669290564E+01   2.5000000000E-01   3.656453E+00   0.
3000001    1    5    0    0    0  -2.9139897195E+00   1.1699333850E+00   2.2743054089E+00   4.0040660964E+00   1.0000000000E+00     0.000   1.
3000022   2   5   0   0   0   -5.1195343929E+01   -9.3412379662E+00   1.1166752086E+01   5.3225753343E+01   2.5000000000E-01   5.620763E-01   0.
13    1    7    0    0    0   2.4962637637E+01   4.5429941752E+00   3.9589185992E+01   4.7022194189E+01   1.0500000000E-01     0.000   1.
-13    1    7    0    0    0   2.7305110312E+01   4.9488587327E+00   4.3558596018E+01   5.1647096375E+01   1.0500000000E-01     0.000  -1.
13    1    9    0    0    0  -2.1024153185E+01  -3.8929731504E+00   4.5560657596E+00   2.1861816422E+01   1.0500000000E-01     0.000   1.
-13    1    9    0    0    0  -3.0171190745E+01  -5.4482648158E+00   6.6106863269E+00   3.1363936921E+01   1.0500000000E-01     0.000  -1.
</event>
<event>
 13   1  9.2978750E-05  1.2500000E+02  7.5467720E-03  1.2380620E-01
   21   -1    0    0  502  501   0.0000000000E+00   0.0000000000E+00   2.0888355434E+02   2.0888355434E+02   0.0000000000E+00     0.000   1.
   21   -1    0    0  501  502   0.0000000000E+00   0.0000000000E+00  -1.8700610550E+01   1.8700610550E+01   0.0000000000E+00     0.000   1.
   25    2    1    2    0    0   0.0000000000E+00   0.0000000000E+00   1.9018294379E+02   2.2758416489E+02   1.2500000000E+02  2.163E-08  -1.
3000002    2    3    0    0    0   3.1582995802E+01  -5.2997528078E+01   9.4795682148E+01   1.1354490284E+02   1.0000000000E+01  7.148E-10   1.
3000002    2    3    0    0    0  -3.1582995802E+01   5.2997528078E+01   9.5387261642E+01   1.1403926205E+02   1.0000000000E+01  1.224E-09   1.
3000001    1    4    0    0    0   2.8886332050E+01  -4.3500027845E+01   8.4007641507E+01   9.8918938699E+01   1.0000000000E+00     0.000   1.
3000022   2   4   0   0   0   2.6966637516E+00   -9.4975002333E+00   1.0788040642E+01   1.4625964138E+01   2.5000000000E-01   5.926072E-01   0.
3000001    1    5    0    0    0  -2.1311465673E+00   7.9330238386E-01   2.7961461443E+00   3.7402603685E+00   1.0000000000E+00     0.000  -1.
3000022   2   5   0   0   0   -2.9451849234E+01   5.2204225694E+01   9.2591115497E+01   1.1029900168E+02   2.5000000000E-01   5.181797E+00   0.
13    1    7    0    0    0   9.4598213664E-01  -3.4965966523E+00   3.9019987062E+00   5.3251938232E+00   1.0500000000E-01     0.000   1.
-13    1    7    0    0    0   1.7506816150E+00  -6.0009035810E+00   6.8860419358E+00   9.3007703147E+00   1.0500000000E-01     0.000  -1.
13    1    9    0    0    0  -1.1117220764E+01   1.9735354387E+01   3.5098869189E+01   4.1773418027E+01   1.0500000000E-01     0.000  -1.
-13    1    9    0    0    0  -1.8334628470E+01   3.2468871308E+01   5.7492246308E+01   6.8525583658E+01   1.0500000000E-01     0.000   1.
</event>
<event>
 13   1  9.2978750E-05  1.2500000E+02  7.5467720E-03  1.2380620E-01
   21   -1    0    0  502  501   0.0000000000E+00   0.0000000000E+00   1.0651460355E+01   1.0651460355E+01   0.0000000000E+00     0.000   1.
   21   -1    0    0  501  502   0.0000000000E+00   0.0000000000E+00  -3.6673375010E+02   3.6673375010E+02   0.0000000000E+00     0.000   1.
   25    2    1    2    0    0   0.0000000000E+00   0.0000000000E+00  -3.5608228975E+02   3.7738521046E+02   1.2500000000E+02  2.356E-08  -1.
3000002    2    3    0    0    0   3.1790538776E+01   4.0264744061E+01  -2.8150195242E+02   2.8631318025E+02   1.0000000000E+01  1.797E-09  -1.
3000002    2    3    0    0    0  -3.1790538776E+01  -4.0264744061E+01  -7.4580337333E+01   9.1072030211E+01   1.0000000000E+01  1.511E-09  -1.
3000001    1    4    0    0    0   5.8617763321E+00   1.0383311666E+01  -4.7117652300E+01   4.8613236275E+01   1.0000000000E+00     0.000   1.
3000022   2   4   0   0   0   2.5928762444E+01   2.9881432395E+01   -2.3438430012E+02   2.3769994397E+02   2.5000000000E-01   1.858884E+00   0.
3000001    1    5    0    0    0  -2.8833522684E+00  -6.2417750558E-01  -5.8440221130E+00   6.6223796568E+00   1.0000000000E+00     0.000  -1.
3000022   2   5   0   0   0   -2.8907186508E+01   -3.9640566555E+01   -6.8736315220E+01   8.4449650554E+01   2.5000000000E-01   7.107083E-01   0.
13    1    7    0    0    0   6.4442584417E+00   7.4654767633E+00  -5.8400121890E+01   5.9227080562E+01   1.0500000000E-01     0.000  -1.
-13    1    7    0    0    0   1.9484504002E+01   2.2415955632E+01  -1.7598417823E+02   1.7847286341E+02   1.0500000000E-01     0.000   1.
13    1    9    0    0    0  -9.1062473504E+00  -1.2467359148E+01  -2.1547890498E+01   2.6508138276E+01   1.0500000000E-01     0.000  -1.
-13    1    9    0    0    0  -1.9800939157E+01  -2.7173207407E+01  -4.7188424723E+01   5.7941512278E+01   1.0500000000E-01     0.000   1.
</event>
<event>
 13   1  9.2978750E-05  1.2500000E+02  7.5467720E-03  1.2380620E-01
   21   -1    0    0  502  501   0.0000000000E+00   0.0000000000E+00   4.3924178976E+02   4.3924178976E+02   0.0000000000E+00     0.000  -1.
   21   -1    0    0  501  502   0.0000000000E+00   0.0000000000E+00  -8.8931656575E+00   8.8931656575E+00   0.0000000000E+00     0.000  -1.
   25    2    1    2    0    0   0.0000000000E+00   0.0000000000E+00   4.3034862410E+02   4.4813495542E+02   1.2500000000E+02  1.937E-07  -1.
3000002    2    3    0    0    0   5.4532762982E+01  -4.8605444263E+00   3.1713204023E+02   3.2197853666E+02   1.0000000000E+01  9.781E-10  -1.
3000002    2    3    0    0    0  -5.4532762982E+01   4.8605444263E+00   1.1321658387E+02   1.2615641876E+02   1.0000000000E+01  1.013E-10  -1.
3000001    1    4    0    0    0   4.2678225057E+00   1.4687931457E+00   3.8667596147E+01   3.8942966683E+01   1.0000000000E+00     0.000  -1.
3000022   2   4   0   0   0   5.0264940477E+01   -6.3293375720E+00   2.7846444408E+02   2.8303556998E+02   2.5000000000E-01   1.146283E+01   0.
3000001    1    5    0    0    0  -7.4540902673E-01  -3.9386040771E-01   5.3604705303E+00   5.5177354906E+00   1.0000000000E+00     0.000   1.
3000022   2   5   0   0   0   -5.3787353956E+01   5.2544048341E+00   1.0785611334E+02   1.2063868327E+02   2.5000000000E-01   3.724560E+00   0.
13    1    7    0    0    0   2.1416041279E+01  -2.6340098285E+00   1.1871101745E+02   1.2065612923E+02   1.0500000000E-01     0.000   1.
-13    1    7    0    0    0   2.8848899198E+01  -3.6953277435E+00   1.5975342663E+02   1.6237944075E+02   1.0500000000E-01     0.000  -1.
13    1    9    0    0    0  -1.6829313109E+01   1.6654121425E+00   3.3850075972E+01   3.7839635908E+01   1.0500000000E-01     0.000   1.
-13    1    9    0    0    0  -3.6958040846E+01   3.5889926915E+00   7.4006037366E+01   8.2799047358E+01   1.0500000000E-01     0.000  -1.
</event>
<event>
 13   1  9.2978750E-05  1.2500000E+02  7.5467720E-03  1.2380620E-01
   21   -1    0    0  502  501   0.0000000000E+00   0.0000000000E+00   1.4876519668E+01   1.4876519668E+01   0.0000000000E+00     0.000  -1.
   21   -1    0    0  501  502   0.0000000000E+00   0.0000000000E+00  -2.6257821636E+02   2.6257821636E+02   0.0000000000E+00     0.000  -1.
   25    2    1    2    0    0   0.0000000000E+00   0.0000000000E+00  -2.4770169669E+02   2.7745473602E+02   1.2500000000E+02  8.286E-09  -1.
3000002    2    3    0    0    0   5.5711850998E+00  -5.9596393330E+01  -9.0668798778E+01   1.0910361714E+02   1.0000000000E+01  8.525E-10  -1.
3000002    2    3    0    0    0  -5.5711850998E+00   5.9596393330E+01  -1.5703289791E+02   1.6835111888E+02   1.0000000000E+01  1.976E-10  -1.
3000001    1    4    0    0    0   7.7712506551E+00  -3.0169048231E+01  -4.7299094671E+01   5.6645989837E+01   1.0000000000E+00     0.000  -1.
3000022   2   4   0   0   0   -2.2000655553E+00   -2.9427345099E+01   -4.3369704106E+01   5.2457627303E+01   2.5000000000E-01   9.217848E-01   0.
3000001    1    5    0    0    0  -1.5288212622E+00   1.8072626993E+01  -3.5884239402E+01   4.0219843092E+01   1.0000000000E+00     0.000   1.
3000022   2   5   0   0   0   -4.0423638376E+00   4.1523766337E+01   -1.2114865851E+02   1.2813127579E+02   2.5000000000E-01   1.427990E+01   0.
13    1    7    0    0    0  -9.6543206444E-01  -1.2634301700E+01  -1.8733182106E+01   2.2616382897E+01   1.0500000000E-01     0.000   1.
-13    1    7    0    0    0  -1.2346334909E+00  -1.6793043398E+01  -2.4636522000E+01   2.9841244406E+01   1.0500000000E-01     0.000  -1.
13    1    9    0    0    0  -1.7088576882E+00   1.7845905734E+01  -5.2240464130E+01   5.5231093268E+01   1.0500000000E-01     0.000   1.
-13    1    9    0    0    0  -2.3335061494E+00   2.3677860603E+01  -6.8908194380E+01   7.2900182520E+01   1.0500000000E-01     0.000  -1.
</event>
<event>
 13   1  9.2978750E-05  1.2500000E+02  7.5467720E-03  1.2380620E-01
   21   -1    0    0  502  501   0.0000000000E+00   0.0000000000E+00   2.1817454236E+00   2.1817454236E+00   0.0000000000E+00     0.000  -1.
   21   -1    0    0  501  502   0.0000000000E+00   0.0000000000E+00  -1.7904242895E+03   1.7904242895E+03   0.0000000000E+00     0.000  -1.
   25    2    1    2    0    0   0.0000000000E+00   0.0000000000E+00  -1.7882425441E+03   1.7926060350E+03   1.2500000000E+02  4.785E-08  -1.
3000002    2    3    0    0    0   4.2570129483E+01  -2.2753593041E+01  -3.4310637075E+02   3.4662937494E+02   1.0000000000E+01  3.707E-11  -1.
3000002    2    3    0    0    0  -4.2570129483E+01   2.2753593041E+01  -1.4451361733E+03   1.4459766601E+03   1.0000000000E+01  6.965E-10  -1.
3000001    1    4    0    0    0   4.2908451175E+01  -2.1707391607E+01  -3.3757853207E+02   3.4098769970E+02   1.0000000000E+00     0.000  -1.
3000022   2   4   0   0   0   -3.3832169236E-01   -1.0462014338E+00   -5.5278386806E+00   5.6416752376E+00   2.5000000000E-01   1.835968E+01   0.
3000001    1    5    0    0    0  -2.1707862273E+01   8.6250469424E+00  -8.1909446667E+02   8.1942807375E+02   1.0000000000E+00     0.000  -1.
3000022   2   5   0   0   0   -2.0862267209E+01   1.4128546099E+01   -6.2604170667E+02   6.2654858631E+02   2.5000000000E-01   4.972679E+00   0.
13    1    7    0    0    0  -2.7272117830E-01  -8.0662798633E-01  -4.2070178498E+00   4.2936056803E+00   1.0500000000E-01     0.000   1.
-13    1    7    0    0    0  -6.5600514059E-02  -2.3957344748E-01  -1.3208208308E+00   1.3480695572E+00   1.0500000000E-01     0.000  -1.
13    1    9    0    0    0  -7.0455871122E+00   4.8364765072E+00  -2.1257401101E+02   2.1274574727E+02   1.0500000000E-01     0.000   1.
-13    1    9    0    0    0  -1.3816680097E+01   9.2920695914E+00  -4.1346769567E+02   4.1380283903E+02   1.0500000000E-01     0.000  -1.
</event>
<event>
 13   1  9.2978750E-05  1.2500000E+02  7.5467720E-03  1.2380620E-01
   21   -1    0    0  502  501   0.0000000000E+00   0.0000000000E+00   2.4456649445E+02   2.4456649445E+02   0.0000000000E+00     0.000   1.
   21   -1    0    0  501  502   0.0000000000E+00   0.0000000000E+00  -1.5972138820E+01   1.5972138820E+01   0.0000000000E+00     0.000   1.
   25    2    1    2    0    0   0.0000000000E+00   0.0000000000E+00   2.2859435563E+02   2.6053863327E+02   1.2500000000E+02  4.176E-09  -1.
3000002    2    3    0    0    0   5.0383406081E+01  -2.1065793116E+01   1.7412791315E+02   1.8276428915E+02   1.0000000000E+01  1.095E-09  -1.
3000002    2    3    0    0    0  -5.0383406081E+01   2.1065793116E+01   5.4466442477E+01   7.7774344124E+01   1.0000000000E+01  4.835E-13  -1.
3000001    1    4    0    0    0   4.8281989276E+01  -2.2014468976E+01   1.6896616518E+02   1.7710548356E+02   1.0000000000E+00     0.000  -1.
3000022   2   4   0   0   0   2.1014168043E+00   9.4867586064E-01   5.1617479728E+00   5.6588055814E+00   2.5000000000E-01   6.327797E-01   0.
3000001    1    5    0    0    0  -9.6937981437E+00   8.4979467345E+00   1.2883935071E+01   1.8253235441E+01   1.0000000000E+00     0.000   1.
3000022   2   5   0   0   0   -4.0689607937E+01   1.2567846381E+01   4.1582507406E+01   5.9521108683E+01   2.5000000000E-01   6.534623E-02   0.
13    1    7    0    0    0   1.1433755019E+00   5.8506136353E-01   2.9209751623E+00   3.1926047729E+00   1.0500000000E-01     0.000  -1.
-13    1    7    0    0    0   9.5804130239E-01   3.6361449711E-01   2.2407728105E+00   2.4662008085E+00   1.0500000000E-01     0.000   1.
13    1    9    0    0    0  -2.6024780845E+01   8.0883930185E+00   2.6656158148E+01   3.8121819367E+01   1.0500000000E-01     0.000   1.
-13    1    9    0    0    0  -1.4664827092E+01   4.4794533626E+00   1.4926349259E+01   2.1399289317E+01   1.0500000000E-01     0.000  -1.
</event>
<event>
 13   1  9.2978750E-05  1.2500000E+02  7.5467720E-03  1.2380620E-01
   21   -1    0    0  502  501   0.0000000000E+00   0.0000000000E+00   6.8654089215E+01   6.8654089215E+01   0.0000000000E+00     0.000   1.
   21   -1    0    0  501  502   0.0000000000E+00   0.0000000000E+00  -5.6897557664E+01   5.6897557664E+01   0.0000000000E+00     0.000   1.
   25    2    1    2    0    0   0.0000000000E+00   0.0000000000E+00   1.1756531551E+01   1.2555164688E+02   1.2500000000E+02  1.057E-10  -1.
3000002    2    3    0    0    0  -2.4824965635E+01   4.8815086993E+01  -2.2655879755E+01   6.0103914385E+01   1.0000000000E+01  2.278E-09   1.
3000002    2    3    0    0    0   2.4824965635E+01  -4.8815086993E+01   3.4412411306E+01   6.5447732495E+01   1.0000000000E+01  1.357E-10   1.
3000001    1    4    0    0    0  -2.5579468975E+01   4.5554840245E+01  -2.1933776190E+01   5.6671361733E+01   1.0000000000E+00     0.000   1.
3000022   2   4   0   0   0   7.5450333950E-01   3.2602467480E+00   -7.2210356542E-01   3.4325526516E+00   2.5000000000E-01   1.122874E+01   0.
3000001    1    5    0    0    0   2.3818198788E+01  -4.8266883285E+01   3.4922488750E+01   6.4168363202E+01   1.0000000000E+00     0.000   1.
3000022   2   5   0   0   0   1.0067668470E+00   -5.4820370803E-01   -5.1007744410E-01   1.2793692933E+00   2.5000000000E-01   3.665591E+00   0.
13    1    7    0    0    0   3.9498653561E-01   1.6513263925E+00  -4.3450447806E-01   1.7557654625E+00   1.0500000000E-01     0.000  -1.
-13    1    7    0    0    0   3.5951680388E-01   1.6089203555E+00  -2.8759908736E-01   1.6767871891E+00   1.0500000000E-01     0.000   1.
13    1    9    0    0    0   7.6889968921E-01  -4.1266085535E-01  -3.5782715451E-01   9.4897891763E-01   1.0500000000E-01     0.000   1.
-13    1    9    0    0    0   2.3786715778E-01  -1.3554285268E-01  -1.5225028960E-01   3.3039037568E-01   1.0500000000E-01     0.000  -1.
</event>
<event>
 13   1  9.2978750E-05  1.2500000E+02  7.5467720E-03  1.2380620E-01
   21   -1    0    0  502  501   0.0000000000E+00   0.0000000000E+00   1.3443280160E+02   1.3443280160E+02   0.0000000000E+00     0.000  -1.
   21   -1    0    0  501  502   0.0000000000E+00   0.0000000000E+00  -2.9057268416E+01   2.9057268416E+01   0.0000000000E+00     0.000  -1.
   25    2    1    2    0    0   0.0000000000E+00   0.0000000000E+00   1.0537553318E+02   1.6349007002E+02   1.2500000000E+02  8.567E-08  -1.
3000002    2    3    0    0    0   4.2234450354E+01  -4.0255947692E+01   2.6465349536E+01   6.4843695510E+01   1.0000000000E+01  1.048E-09  -1.
3000002    2    3    0    0    0  -4.2234450354E+01   4.0255947692E+01   7.8910183644E+01   9.8646374510E+01   1.0000000000E+01  6.629E-10  -1.
3000001    1    4    0    0    0   1.6636135804E+01  -2.2470341739E+01   1.1200051187E+01   3.0135003218E+01   1.0000000000E+00     0.000   1.
3000022   2   4   0   0   0   2.5598314550E+01   -1.7785605953E+01   1.5265298349E+01   3.4708692292E+01   2.5000000000E-01   2.836683E+00   0.
3000001    1    5    0    0    0  -4.0660029366E+01   4.0374537198E+01   7.8051785868E+01   9.6831929234E+01   1.0000000000E+00     0.000  -1.
3000022   2   5   0   0   0   -1.5744209880E+00   -1.1858950613E-01   8.5839777598E-01   1.8144452762E+00   2.5000000000E-01   9.436714E+00   0.
13    1    7    0    0    0   1.1697575351E+01  -8.0642566825E+00   7.0051866941E+00   1.5841375273E+01   1.0500000000E-01     0.000  -1.
-13    1    7    0    0    0   1.3900739200E+01  -9.7213492706E+00   8.2601116551E+00   1.8867317019E+01   1.0500000000E-01     0.000   1.
13    1    9    0    0    0  -5.3249590141E-01  -6.5299851417E-02   3.5029284631E-01   6.4926576514E-01   1.0500000000E-01     0.000   1.
-13    1    9    0    0    0  -1.0419250866E+00  -5.3289654710E-02   5.0810492967E-01   1.1651795110E+00   1.0500000000E-01     0.000  -1.
</event>
<event>
 13   1  9.2978750E-05  1.2500000E+02  7.5467720E-03  1.2380620E-01
   21   -1    0    0  502  501   0.0000000000E+00   0.0000000000E+00   7.7155124754E+00   7.7155124754E+00   0.0000000000E+00     0.000  -1.
   21   -1    0    0  501  502   0.0000000000E+00   0.0000000000E+00  -5.0628522894E+02   5.0628522894E+02   0.0000000000E+00     0.000  -1.
   25    2    1    2    0    0   0.0000000000E+00   0.0000000000E+00  -4.9856971647E+02   5.1400074142E+02   1.2500000000E+02  1.362E-08  -1.
3000002    2    3    0    0    0  -5.9797862715E+00  -2.1523091525E+01  -4.8576090623E+02   4.8637707525E+02   1.0000000000E+01  1.231E-09  -1.
3000002    2    3    0    0    0   5.9797862715E+00   2.1523091525E+01  -1.2808810241E+01   2.7623666165E+01   1.0000000000E+01  4.738E-10  -1.
3000001    1    4    0    0    0  -5.3725756297E+00  -3.9781120973E+00  -1.6115884774E+02   1.6130053983E+02   1.0000000000E+00     0.000   1.
3000022   2   4   0   0   0   -6.0721064178E-01   -1.7544979427E+01   -3.2460205849E+02   3.2507653543E+02   2.5000000000E-01   7.538042E+00   0.
3000001    1    5    0    0    0  -2.7429388209E+00   5.7146225487E+00  -3.3019308080E+00   7.2168809959E+00   1.0000000000E+00     0.000   1.
3000022   2   5   0   0   0   8.7227250923E+00   1.5808468976E+01   -9.5068794328E+00   2.0406785169E+01   2.5000000000E-01   2.923946E+00   0.
13    1    7    0    0    0  -2.4218653894E-01  -6.5100137842E+00  -1.2152180092E+02   1.2169633543E+02   1.0500000000E-01     0.000  -1.
-13    1    7    0    0    0  -3.6502410284E-01  -1.1034965643E+01  -2.0308025757E+02   2.0338019999E+02   1.0500000000E-01     0.000   1.
13    1    9    0    0    0   3.8664999482E+00   6.8790354674E+00  -4.1295696402E+00   8.9070377357E+00   1.0500000000E-01     0.000  -1.
-13    1    9    0    0    0   4.8562251442E+00   8.9294335085E+00  -5.3773097926E+00   1.1499747434E+01   1.0500000000E-01     0.000   1.
</event>
<event>
 13   1  9.2978750E-05  1.2500000E+02  7.5467720E-03  1.2380620E-01
   21   -1    0    0  502  501   0.0000000000E+00   0.0000000000E+00   1.3595798766E+01   1.3595798766E+01   0.0000000000E+00     0.000  -1.
   21   -1    0    0  501  502   0.0000000000E+00   0.0000000000E+00  -2.8731301980E+02   2.8731301980E+02   0.0000000000E+00     0.000  -1.
   25    2    1    2    0    0   0.0000000000E+00   0.0000000000E+00  -2.7371722104E+02   3.0090881857E+02   1.2500000000E+02  9.180E-11  -1.
3000002    2    3    0    0    0   2.0702583623E+01  -5.8052013125E+01  -1.4350232982E+02   1.5649776950E+02   1.0000000000E+01  3.750E-10   1.
3000002    2    3    0    0    0  -2.0702583623E+01   5.8052013125E+01  -1.3021489122E+02   1.4441104907E+02   1.0000000000E+01  1.765E-10   1.
3000001    1    4    0    0    0   1.9048930087E+01  -4.0645200559E+01  -1.0612996667E+02   1.1523655623E+02   1.0000000000E+00     0.000   1.
3000022   2   4   0   0   0   1.6536535354E+00   -1.7406812566E+01   -3.7372363145E+01   4.1261213273E+01   2.5000000000E-01   8.578819E-01   0.
3000001    1    5    0    0    0  -2.1097414769E+01   4.9845712703E+01  -1.1545222304E+02   1.2751435915E+02   1.0000000000E+00     0.000   1.
3000022   2   5   0   0   0   3.9483114682E-01   8.2063004214E+00   -1.4762668185E+01   1.6896689918E+01   2.5000000000E-01   2.860648E+00   0.
13    1    7    0    0    0   1.0586939024E+00  -1.1374505963E+01  -2.4537030435E+01   2.7066161646E+01   1.0500000000E-01     0.000   1.
-13    1    7    0    0    0   5.9495963304E-01  -6.0323066023E+00  -1.2835332711E+01   1.4195051627E+01   1.0500000000E-01     0.000  -1.
13    1    9    0    0    0   8.1067177510E-02   2.4079226566E+00  -4.3868046554E+00   5.0059707842E+00   1.0500000000E-01     0.000   1.
-13    1    9    0    0    0   3.1376396931E-01   5.7983777648E+00  -1.0375863530E+01   1.1890719134E+01   1.0500000000E-01     0.000  -1.
</event>
<event>
 13   1  9.2978750E-05  1.2500000E+02  7.5467720E-03  1.2380620E-01
   21   -1    0    0  502  501   0.0000000000E+00   0.0000000000E+00   1.2105321882E+03   1.2105321882E+03   0.0000000000E+00     0.000   1.
   21   -1    0    0  501  502   0.0000000000E+00   0.0000000000E+00  -3.2268865198E+00   3.2268865198E+00   0.0000000000E+00     0.000   1.
   25    2    1    2    0    0   0.0000000000E+00   0.0000000000E+00   1.2073053017E+03   1.2137590748E+03   1.2500000000E+02  1.971E-08  -1.
3000002    2    3    0    0    0   1.5507911653E+01  -5.8539441052E+01   7.1808681540E+02   7.2070523512E+02   1.0000000000E+01  7.592E-10   1.
3000002    2    3    0    0    0  -1.5507911653E+01   5.8539441052E+01   4.8921848630E+02   4.9305383968E+02   1.0000000000E+01  1.265E-10   1.
3000001    1    4    0    0    0  -1.8516540821E-01  -1.2722503684E+01   1.2827175399E+02   1.2890515606E+02   1.0000000000E+00     0.000  -1.
3000022   2   4   0   0   0   1.5693077061E+01   -4.5816937368E+01   5.8981506141E+02   5.9180007907E+02   2.5000000000E-01   1.116937E+00   0.
3000001    1    5    0    0    0  -3.0015880732E-01   8.6511699731E+00   5.0527276017E+01   5.1273174847E+01   1.0000000000E+00     0.000  -1.
3000022   2   5   0   0   0   -1.5207752845E+01   4.9888271079E+01   4.3869121028E+02   4.4178066483E+02   2.5000000000E-01   7.102962E+00   0.
13    1    7    0    0    0   1.0493848447E+01  -3.0495751894E+01   3.9243054598E+02   3.9375354752E+02   1.0500000000E-01     0.000  -1.
-13    1    7    0    0    0   5.1992286132E+00  -1.5321185474E+01   1.9738451542E+02   1.9804653154E+02   1.0500000000E-01     0.000   1.
13    1    9    0    0    0  -9.7742080333E+00   3.1929443068E+01   2.8123269734E+02   2.8320816647E+02   1.0500000000E-01     0.000  -1.
-13    1    9    0    0    0  -5.4335448119E+00   1.7958828011E+01   1.5745851295E+02   1.5857249836E+02   1.0500000000E-01     0.000   1.
</event>
<event>
 13   1  9.2978750E-05  1.2500000E+02  7.5467720E-03  1.2380620E-01
   21   -1    0    0  502  501   0.0000000000E+00   0.0000000000E+00   1.2571444559E+02   1.2571444559E+02   0.0000000000E+00     0.000   1.
   21   -1    0    0  501  502   0.0000000000E+00   0.0000000000E+00  -3.1072403666E+01   3.1072403666E+01   0.0000000000E+00     0.000   1.
   25    2    1    2    0    0   0.0000000000E+00   0.0000000000E+00   9.4642041924E+01   1.5678684926E+02   1.2500000000E+02  9.052E-09  -1.
3000002    2    3    0    0    0  -3.0298327335E+01   1.6618787200E+01  -1.6784086122E+01   3.9697333339E+01   1.0000000000E+01  1.349E-09   1.
3000002    2    3    0    0    0   3.0298327335E+01  -1.6618787200E+01   1.1142612805E+02   1.1708951592E+02   1.0000000000E+01  1.886E-10   1.
3000001    1    4    0    0    0  -8.0483030763E+00   7.6972680025E+00  -1.5378255973E+00   1.1286630351E+01   1.0000000000E+00     0.000   1.
3000022   2   4   0   0   0   -2.2250024258E+01   8.9215191973E+00   -1.5246260525E+01   2.8410702988E+01   2.5000000000E-01   8.155232E+00   0.
3000001    1    5    0    0    0   1.1553076731E+01  -1.1848683706E+01   5.4552666166E+01   5.7016298313E+01   1.0000000000E+00     0.000  -1.
3000022   2   5   0   0   0   1.8745250604E+01   -4.7701034943E+00   5.6873461880E+01   6.0073217608E+01   2.5000000000E-01   9.826957E+00   0.
13    1    7    0    0    0  -5.6934191439E+00   2.2567186924E+00  -3.9151097966E+00   7.2695880574E+00   1.0500000000E-01     0.000  -1.
-13    1    7    0    0    0  -1.6556605115E+01   6.6648005049E+00  -1.1331150728E+01   2.1141114931E+01   1.0500000000E-01     0.000   1.
13    1    9    0    0    0   9.0536777159E+00  -2.2372725870E+00   2.7483950970E+01   2.9023319154E+01   1.0500000000E-01     0.000   1.
-13    1    9    0    0    0   9.6915728881E+00  -2.5328309072E+00   2.9389510910E+01   3.1049898454E+01   1.0500000000E-01     0.000  -1.
</event>
<event>
 13   1  9.2978750E-05  1.2500000E+02  7.5467720E-03  1.2380620E-01
   21   -1    0    0  502  501   0.0000000000E+00   0.0000000000E+00   1.2432513948E+01   1.2432513948E+01   0.0000000000E+00     0.000   1.
   21   -1    0    0  501  502   0.0000000000E+00   0.0000000000E+00  -3.1419630948E+02   3.1419630948E+02   0.0000000000E+00     0.000   1.
   25    2    1    2    0    0   0.0000000000E+00   0.0000000000E+00  -3.0176379554E+02   3.2662882343E+02   1.2500000000E+02  1.954E-08  -1.
3000002    2    3    0    0    0  -1.6431267834E+01   4.7870157786E+01  -5.8692955451E+01   7.8143467985E+01   1.0000000000E+01  4.975E-10   1.
3000002    2    3    0    0    0   1.6431267834E+01  -4.7870157786E+01  -2.4307084009E+02   2.4848535544E+02   1.0000000000E+01  4.885E-10   1.
3000001    1    4    0    0    0  -1.1006523942E+01   3.1153006442E+01  -3.0839299023E+01   4.5207474424E+01   1.0000000000E+00     0.000   1.
3000022   2   4   0   0   0   -5.4247438926E+00   1.6717151345E+01   -2.7853656429E+01   3.2935993561E+01   2.5000000000E-01   9.608899E-01   0.
3000001    1    5    0    0    0   8.5070715193E+00  -3.7523415560E+01  -1.7593763946E+02   1.8009838966E+02   1.0000000000E+00     0.000  -1.
3000022   2   5   0   0   0   7.9241963152E+00   -1.0346742226E+01   -6.7133200630E+01   6.8386965781E+01   2.5000000000E-01   4.045444E+00   0.
13    1    7    0    0    0  -3.6201640618E+00   1.0983595557E+01  -1.8353934752E+01   2.1693844866E+01   1.0500000000E-01     0.000  -1.
-13    1    7    0    0    0  -1.8045798309E+00   5.7335557877E+00  -9.4997216770E+00   1.1242148695E+01   1.0500000000E-01     0.000   1.
13    1    9    0    0    0   4.9173453471E+00  -6.5116053218E+00  -4.1905378808E+01   4.2692541353E+01   1.0500000000E-01     0.000  -1.
-13    1    9    0    0    0   3.0068509681E+00  -3.8351369044E+00  -2.5227821822E+01   2.5694424428E+01   1.0500000000E-01     0.000   1.
</event>
<event>
 13   1  9.2978750E-05  1.2500000E+02  7.5467720E-03  1.2380620E-01
   21   -1    0    0  502  501   0.0000000000E+00   0.0000000000E+00   2.9328959034E+01   2.9328959034E+01   0.0000000000E+00     0.000   1.
   21   -1    0    0  501  502   0.0000000000E+00   0.0000000000E+00  -1.3318747507E+02   1.3318747507E+02   0.0000000000E+00     0.000   1.
   25    2    1    2    0    0   0.0000000000E+00   0.0000000000E+00  -1.0385851603E+02   1.6251643410E+02   1.2500000000E+02  1.257E-08  -1.
3000002    2    3    0    0    0  -8.8114124750E-01  -5.7104558029E+01  -2.1590110168E+01   6.1869538665E+01   1.0000000000E+01  3.499E-09   1.
3000002    2    3    0    0    0   8.8114124750E-01   5.7104558029E+01  -8.2268405862E+01   1.0064689543E+02   1.0000000000E+01  6.592E-10   1.
3000001    1    4    0    0    0   4.4094001667E+00  -2.4621489359E+01  -8.2642076154E+00   2.6362049913E+01   1.0000000000E+00     0.000  -1.
3000022   2   4   0   0   0   -5.2905414142E+00   -3.2483068670E+01   -1.3325902553E+01   3.5507488752E+01   2.5000000000E-01   1.188674E+00   0.
3000001    1    5    0    0    0  -8.4169842510E-01   1.0526125006E+00  -1.1625334583E+00   2.0415517032E+00   1.0000000000E+00     0.000   1.
3000022   2   5   0   0   0   1.7228396726E+00   5.6051945528E+01   -8.1105872403E+01   9.8605343731E+01   2.5000000000E-01   9.748393E-01   0.
13    1    7    0    0    0  -2.7972235816E+00  -1.7576364544E+01  -7.1868773513E+00   1.9194147061E+01   1.0500000000E-01     0.000  -1.
-13    1    7    0    0    0  -2.4933178326E+00  -1.4906704126E+01  -6.1390252017E+00   1.6313341691E+01   1.0500000000E-01     0.000   1.
13    1    9    0    0    0   5.1933647927E-01   1.5713707311E+01  -2.2710731164E+01   2.7622068040E+01   1.0500000000E-01     0.000   1.
-13    1    9    0    0    0   1.2035031933E+00   4.0338238217E+01  -5.8395141240E+01   7.0983275691E+01   1.0500000000E-01     0.000  -1.
</event>
<event>
 13   1  9.2978750E-05  1.2500000E+02  7.5467720E-03  1.2380620E-01
   21   -1    0    0  502  501   0.0000000000E+00   0.0000000000E+00   2.7411149668E+01   2.7411149668E+01   0.0000000000E+00     0.000   1.
   21   -1    0    0  501  502   0.0000000000E+00   0.0000000000E+00  -1.4250587981E+02   1.4250587981E+02   0.0000000000E+00     0.000   1.
   25    2    1    2    0    0   0.0000000000E+00   0.0000000000E+00  -1.1509473014E+02   1.6991702948E+02   1.2500000000E+02  4.263E-08  -1.
3000002    2    3    0    0    0  -5.3471583978E+01   2.3401015811E+01  -3.0379944132E+01   6.6556433494E+01   1.0000000000E+01  1.717E-09   1.
3000002    2    3    0    0    0   5.3471583978E+01  -2.3401015811E+01  -8.4714786008E+01   1.0336059599E+02   1.0000000000E+01  1.235E-09   1.
3000001    1    4    0    0    0  -3.5712883183E+01   1.7752394608E+01  -1.5861991202E+01   4.2932042863E+01   1.0000000000E+00     0.000  -1.
3000022   2   4   0   0   0   -1.7758700795E+01   5.6486212028E+00   -1.4517952930E+01   2.3624390631E+01   2.5000000000E-01   1.474043E+00   0.
3000001    1    5    0    0    0   2.3494209547E+01  -7.8257121493E+00  -2.8432841750E+01   3.7717981691E+01   1.0000000000E+00     0.000  -1.
3000022   2   5   0   0   0   2.9977374431E+01   -1.5575303661E+01   -5.6281944258E+01   6.5642614295E+01   2.5000000000E-01   4.134010E+00   0.
13    1    7    0    0    0  -8.2474847829E+00   2.5555268894E+00  -6.7499161057E+00   1.0960114751E+01   1.0500000000E-01     0.000   1.
-13    1    7    0    0    0  -9.5112160123E+00   3.0930943134E+00  -7.7680368239E+00   1.2664275880E+01   1.0500000000E-01     0.000  -1.
13    1    9    0    0    0   1.6267705817E+01  -8.4035552873E+00  -3.0405223763E+01   3.5492909871E+01   1.0500000000E-01     0.000   1.
-13    1    9    0    0    0   1.3709668614E+01  -7.1717483739E+00  -2.5876720495E+01   3.0149704424E+01   1.0500000000E-01     0.000  -1.
</event>
<event>
 13   1  9.2978750E-05  1.2500000E+02  7.5467720E-03  1.2380620E-01
   21   -1    0    0  502  501   0.0000000000E+00   0.0000000000E+00   2.7385083184E+01   2.7385083184E+01   0.0000000000E+00     0.000   1.
   21   -1    0    0  501  502   0.0000000000E+00   0.0000000000E+00  -1.4264152399E+02   1.4264152399E+02   0.0000000000E+00     0.000   1.
   25    2    1    2    0    0   0.0000000000E+00   0.0000000000E+00  -1.1525644081E+02   1.7002660718E+02   1.2500000000E+02  1.955E-08  -1.
3000002    2    3    0    0    0  -5.7229140504E+01  -2.2477544832E+01  -5.0714450217E+01   8.0326645674E+01   1.0000000000E+01  5.221E-10  -1.
3000002    2    3    0    0    0   5.7229140504E+01   2.2477544832E+01  -6.4541990593E+01   8.9699961506E+01   1.0000000000E+01  1.514E-09  -1.
3000001    1    4    0    0    0  -4.8860461776E+01  -1.7099652660E+01  -4.6232009277E+01   6.9412834028E+01   1.0000000000E+00     0.000  -1.
3000022   2   4   0   0   0   -8.3686787277E+00   -5.3778921717E+00   -4.4824409395E+00   1.0913811645E+01   2.5000000000E-01   3.220074E+00   0.
3000001    1    5    0    0    0   5.0830872603E+01   2.3030221855E+01  -5.6714332220E+01   7.9571880758E+01   1.0000000000E+00     0.000  -1.
3000022   2   5   0   0   0   6.3982679007E+00   -5.5267702343E-01   -7.8276583738E+00   1.0128080748E+01   2.5000000000E-01   4.429918E+00   0.
13    1    7    0    0    0  -4.5752587578E+00  -2.9787820365E+00  -2.3959661294E+00   5.9630372978E+00   1.0500000000E-01     0.000  -1.
-13    1    7    0    0    0  -3.7934199699E+00  -2.3991101352E+00  -2.0864748100E+00   4.9507743477E+00   1.0500000000E-01     0.000   1.
13    1    9    0    0    0   4.1916811234E+00  -3.5124766890E-01  -5.0390488837E+00   6.5648003943E+00   1.0500000000E-01     0.000   1.
-13    1    9    0    0    0   2.2065867773E+00  -2.0142935452E-01  -2.7886094901E+00   3.5632803537E+00   1.0500000000E-01     0.000  -1.
</event>
<event>
 13   1  9.2978750E-05  1.2500000E+02  7.5467720E-03  1.2380620E-01
   21   -1    0    0  502  501   0.0000000000E+00   0.0000000000E+00   7.9467406547E+01   7.9467406547E+01   0.0000000000E+00     0.000  -1.
   21   -1    0    0  501  502   0.0000000000E+00   0.0000000000E+00  -4.9155372872E+01   4.9155372872E+01   0.0000000000E+00     0.000  -1.
   25    2    1    2    0    0   0.0000000000E+00   0.0000000000E+00   3.0312033675E+01   1.2862277942E+02   1.2500000000E+02  2.135E-08  -1.
3000002    2    3    0    0    0   3.6071227000E+01  -2.7284190680E+01  -2.8020665344E+01   5.4136107772E+01   1.0000000000E+01  5.912E-10   1.
3000002    2    3    0    0    0  -3.6071227000E+01   2.7284190680E+01   5.8332699019E+01   7.4486671648E+01   1.0000000000E+01  2.866E-10   1.
3000001    1    4    0    0    0   2.8272634844E+01  -1.7157375828E+01  -2.3473090492E+01   4.0567270103E+01   1.0000000000E+00     0.000   1.
3000022   2   4   0   0   0   7.7985921565E+00   -1.0126814852E+01   -4.5475748519E+00   1.3568837669E+01   2.5000000000E-01   8.495139E-01   0.
3000001    1    5    0    0    0  -2.7400754399E+01   2.2407483874E+01   3.8567790910E+01   5.2358105112E+01   1.0000000000E+00     0.000   1.
3000022   2   5   0   0   0   -8.6704726009E+00   4.8767068061E+00   1.9764908109E+01   2.2128566537E+01   2.5000000000E-01   1.585351E+00   0.
13    1    7    0    0    0   4.3632573618E+00  -5.6533970027E+00  -2.4709003998E+00   7.5574655977E+00   1.0500000000E-01     0.000  -1.
-13    1    7    0    0    0   3.4353347947E+00  -4.4734178489E+00  -2.0766744521E+00   6.0113720715E+00   1.0500000000E-01     0.000   1.
13    1    9    0    0    0  -6.1929973422E+00   3.4920607706E+00   1.4032588550E+01   1.5731251410E+01   1.0500000000E-01     0.000  -1.
-13    1    9    0    0    0  -2.4774752587E+00   1.3846460356E+00   5.7323195596E+00   6.3973151270E+00   1.0500000000E-01     0.000   1.
</event>
<event>
 13   1  9.2978750E-05  1.2500000E+02  7.5467720E-03  1.2380620E-01
   21   -1    0    0  502  501   0.0000000000E+00   0.0000000000E+00   7.5489519199E+01   7.5489519199E+01   0.0000000000E+00     0.000  -1.
   21   -1    0    0  501  502   0.0000000000E+00   0.0000000000E+00  -5.1745593844E+01   5.1745593844E+01   0.0000000000E+00     0.000  -1.
   25    2    1    2    0    0   0.0000000000E+00   0.0000000000E+00   2.3743925355E+01   1.2723511304E+02   1.2500000000E+02  5.269E-08  -1.
3000002    2    3    0    0    0  -1.0660104268E+01   2.9224159251E+01   6.6102768693E+01   7.3737814829E+01   1.0000000000E+01  4.565E-10  -1.
3000002    2    3    0    0    0   1.0660104268E+01  -2.9224159251E+01  -4.2358843338E+01   5.3497298211E+01   1.0000000000E+01  2.529E-09  -1.
3000001    1    4    0    0    0   2.0045609253E-01   1.3557858857E+01   2.6419531779E+01   2.9712747750E+01   1.0000000000E+00     0.000  -1.
3000022   2   4   0   0   0   -1.0860560360E+01   1.5666300394E+01   3.9683236914E+01   4.4025067080E+01   2.5000000000E-01   1.035947E+00   0.
3000001    1    5    0    0    0   7.7177919258E+00  -2.3390455463E+01  -2.5748406834E+01   3.5646292563E+01   1.0000000000E+00     0.000   1.
3000022   2   5   0   0   0   2.9423123419E+00   -5.8337037885E+00   -1.6610436504E+01   1.7851005648E+01   2.5000000000E-01   1.606221E+00   0.
13    1    7    0    0    0  -3.6207607612E+00   5.1908745548E+00   1.3060619514E+01   1.4513645105E+01   1.0500000000E-01     0.000  -1.
-13    1    7    0    0    0  -7.2397995990E+00   1.0475425840E+01   2.6622617400E+01   2.9511421975E+01   1.0500000000E-01     0.000   1.
13    1    9    0    0    0   8.0081535792E-01  -1.5483450459E+00  -4.5185325647E+00   4.8442583702E+00   1.0500000000E-01     0.000  -1.
-13    1    9    0    0    0   2.1414969840E+00  -4.2853587426E+00  -1.2091903939E+01   1.3006747278E+01   1.0500000000E-01     0.000   1.
</event>
<event>
 13   1  9.2978750E-05  1.2500000E+02  7.5467720E-03  1.2380620E-01
   21   -1    0    0  502  501   0.0000000000E+00   0.0000000000E+00   6.1103158870E+01   6.1103158870E+01   0.0000000000E+00     0.000  -1.
   21   -1    0    0  501  502   0.0000000000E+00   0.0000000000E+00  -6.3928773442E+01   6.3928773442E+01   0.0000000000E+00     0.000  -1.
   25    2    1    2    0    0   0.0000000000E+00   0.0000000000E+00  -2.8256145717E+00   1.2503193231E+02   1.2500000000E+02  1.013E-07  -1.
3000002    2    3    0    0    0  -3.2974732349E+01   3.7850544533E+01   3.4460728330E+01   6.1705254978E+01   1.0000000000E+01  2.594E-10   1.
3000002    2    3    0    0    0   3.2974732349E+01  -3.7850544533E+01  -3.7286342901E+01   6.3326677332E+01   1.0000000000E+01  1.550E-09   1.
3000001    1    4    0    0    0  -7.5577280510E+00   5.3022171483E+00   1.0263703080E+01   1.3841111259E+01   1.0000000000E+00     0.000   1.
3000022   2   4   0   0   0   -2.5417004298E+01   3.2548327385E+01   2.4197025250E+01   4.7864143719E+01   2.5000000000E-01   1.007855E+01   0.
3000001    1    5    0    0    0   5.9932595545E+00  -2.3746892396E+00  -6.0720283944E+00   8.9122296814E+00   1.0000000000E+00     0.000  -1.
3000022   2   5   0   0   0   2.6981472794E+01   -3.5475855293E+01   -3.1214314507E+01   5.4414447650E+01   2.5000000000E-01   3.977162E+00   0.
13    1    7    0    0    0  -1.1876637386E+01   1.5318223734E+01   1.1361419414E+01   2.2467651636E+01   1.0500000000E-01     0.000  -1.
-13    1    7    0    0    0  -1.3540366912E+01   1.7230103651E+01   1.2835605837E+01   2.5396492083E+01   1.0500000000E-01     0.000   1.
13    1    9    0    0    0   1.0112791126E+01  -1.3200536880E+01  -1.1627927607E+01   2.0291437694E+01   1.0500000000E-01     0.000  -1.
-13    1    9    0    0    0   1.6868681668E+01  -2.2275318414E+01  -1.9586386901E+01   3.4123009956E+01   1.0500000000E-01     0.000   1.
</event>
<event>
 13   1  9.2978750E-05  1.2500000E+02  7.5467720E-03  1.2380620E-01
   21   -1    0    0  502  501   0.0000000000E+00   0.0000000000E+00   5.0617329317E+02   5.0617329317E+02   0.0000000000E+00     0.000  -1.
   21   -1    0    0  501  502   0.0000000000E+00   0.0000000000E+00  -7.7172186932E+00   7.7172186932E+00   0.0000000000E+00     0.000  -1.
   25    2    1    2    0    0   0.0000000000E+00   0.0000000000E+00   4.9845607447E+02   5.1389051186E+02   1.2500000000E+02  4.606E-08  -1.
3000002    2    3    0    0    0   2.2573318695E+01   1.5284180096E+01   2.1697127782E+01   3.6248120394E+01   1.0000000000E+01  2.178E-10  -1.
3000002    2    3    0    0    0  -2.2573318695E+01  -1.5284180096E+01   4.7675894669E+02   4.7764239147E+02   1.0000000000E+01  5.749E-10  -1.
3000001    1    4    0    0    0   2.2197431993E-02   3.3341852366E+00   2.0576399809E+00   4.0436575286E+00   1.0000000000E+00     0.000   1.
3000022   2   4   0   0   0   2.2551121263E+01   1.1949994859E+01   1.9639487801E+01   3.2204462865E+01   2.5000000000E-01   3.938601E-02   0.
3000001    1    5    0    0    0  -8.9969502687E+00  -9.6429540233E+00   2.9194568939E+02   2.9224513209E+02   1.0000000000E+00     0.000  -1.
3000022   2   5   0   0   0   -1.3576368427E+01   -5.6412260724E+00   1.8481325730E+02   1.8539725937E+02   2.5000000000E-01   2.019858E+00   0.
13    1    7    0    0    0   8.6302960014E+00   4.6381363770E+00   7.5122398324E+00   1.2346622632E+01   1.0500000000E-01     0.000   1.
-13    1    7    0    0    0   1.3920825262E+01   7.3118584821E+00   1.2127247968E+01   1.9857840233E+01   1.0500000000E-01     0.000  -1.
13    1    9    0    0    0  -9.5532254465E+00  -3.9698484836E+00   1.2947237385E+02   1.2988506623E+02   1.0500000000E-01     0.000   1.
-13    1    9    0    0    0  -4.0231429801E+00  -1.6713775888E+00   5.5340883442E+01   5.5512193144E+01   1.0500000000E-01     0.000  -1.
</event>
<event>
 13   1  9.2978750E-05  1.2500000E+02  7.5467720E-03  1.2380620E-01
   21   -1    0    0  502  501   0.0000000000E+00   0.0000000000E+00   1.2302342954E+02   1.2302342954E+02   0.0000000000E+00     0.000   1.
   21   -1    0    0  501  502   0.0000000000E+00   0.0000000000E+00  -3.1752081817E+01   3.1752081817E+01   0.0000000000E+00     0.000   1.
   25    2    1    2    0    0   0.0000000000E+00   0.0000000000E+00   9.1271347720E+01   1.5477551135E+02   1.2500000000E+02  4.649E-08  -1.
3000002    2    3    0    0    0   5.3798749482E+01   1.3887527020E+01   1.2432378720E+01   5.7807723474E+01   1.0000000000E+01  3.444E-10  -1.
3000002    2    3    0    0    0  -5.3798749482E+01  -1.3887527020E+01   7.8838969000E+01   9.6967787876E+01   1.0000000000E+01  4.687E-10  -1.
3000001    1    4    0    0    0   1.3431028896E+01   7.2749137141E+00   5.7878643479E+00   1.6365093354E+01   1.0000000000E+00     0.000  -1.
3000022   2   4   0   0   0   4.0367720586E+01   6.6126133056E+00   6.6445143719E+00   4.1442630120E+01   2.5000000000E-01   9.050733E-01   0.
3000001    1    5    0    0    0  -4.6627009477E+01  -1.5110224597E+01   7.0875834128E+01   8.6178772116E+01   1.0000000000E+00     0.000  -1.
3000022   2   5   0   0   0   -7.1717400059E+00   1.2226975778E+00   7.9631348726E+00   1.0789015760E+01   2.5000000000E-01   1.544863E+00   0.
13    1    7    0    0    0   2.0145167032E+01   3.2650404088E+00   3.2557948612E+00   2.0666384996E+01   1.0500000000E-01     0.000  -1.
-13    1    7    0    0    0   2.0222553554E+01   3.3475728967E+00   3.3887195107E+00   2.0776245124E+01   1.0500000000E-01     0.000   1.
13    1    9    0    0    0  -2.5883930408E+00   3.9542989664E-01   2.8128460093E+00   3.8443817460E+00   1.0500000000E-01     0.000  -1.
-13    1    9    0    0    0  -4.5833469651E+00   8.2726768114E-01   5.1502888633E+00   6.9446340144E+00   1.0500000000E-01     0.000   1.
</event>
<event>
 13   1  9.2978750E-05  1.2500000E+02  7.5467720E-03  1.2380620E-01
   21   -1    0    0  502  501   0.0000000000E+00   0.0000000000E+00   2.3736870642E+02   2.3736870642E+02   0.0000000000E+00     0.000  -1.
   21   -1    0    0  501  502   0.0000000000E+00   0.0000000000E+00  -1.6456465804E+01   1.6456465804E+01   0.0000000000E+00     0.000  -1.
   25    2    1    2    0    0   0.0000000000E+00   0.0000000000E+00   2.2091224061E+02   2.5382517222E+02   1.2500000000E+02  9.172E-08  -1.
3000002    2    3    0    0    0  -1.7948909570E+00  -1.4431872089E+00  -1.4734128390E+01   1.7955471653E+01   1.0000000000E+01  1.883E-09  -1.
3000002    2    3    0    0    0   1.7948909570E+00   1.4431872089E+00   2.3564636900E+02   2.3586970057E+02   1.0000000000E+01  6.340E-10  -1.
3000001    1    4    0    0    0  -5.6067755158E+00   6.6303127514E-02  -1.1078309354E+01   1.2456695626E+01   1.0000000000E+00     0.000  -1.
3000022   2   4   0   0   0   3.8118845588E+00   -1.5094903364E+00   -3.6558190361E+00   5.4987760265E+00   2.5000000000E-01   3.906195E+00   0.
3000001    1    5    0    0    0  -1.5789828868E+00   4.8808310704E+00   9.8517411521E+01   9.8655947980E+01   1.0000000000E+00     0.000  -1.
3000022   2   5   0   0   0   3.3738738438E+00   -3.4376438615E+00   1.3712895748E+02   1.3721375259E+02   2.5000000000E-01   3.028087E+00   0.
13    1    7    0    0    0   2.0132926657E+00  -7.4126725295E-01  -1.8544825121E+00   2.8377728743E+00   1.0500000000E-01     0.000  -1.
-13    1    7    0    0    0   1.7985918931E+00  -7.6822308341E-01  -1.8013365240E+00   2.6610031523E+00   1.0500000000E-01     0.000   1.
13    1    9    0    0    0   1.6777352423E+00  -1.7953147310E+00   6.9042707157E+01   6.9086499312E+01   1.0500000000E-01     0.000  -1.
-13    1    9    0    0    0   1.6961386015E+00  -1.6423291305E+00   6.8086250321E+01   6.8127253276E+01   1.0500000000E-01     0.000   1.
</event>
<event>
 13   1  9.2978750E-05  1.2500000E+02  7.5467720E-03  1.2380620E-01
   21   -1    0    0  502  501   0.0000000000E+00   0.0000000000E+00   1.9613649446E+00   1.9613649446E+00   0.0000000000E+00     0.000   1.
   21   -1    0    0  501  502   0.0000000000E+00   0.0000000000E+00  -1.9915977446E+03   1.9915977446E+03   0.0000000000E+00     0.000   1.
   25    2    1    2    0    0   0.0000000000E+00   0.0000000000E+00  -1.9896363796E+03   1.9935591095E+03   1.2500000000E+02  4.463E-09  -1.
3000002    2    3    0    0    0   4.9313777570E+01  -1.9946536144E+01  -1.4932014718E+03   1.4941821670E+03   1.0000000000E+01  1.270E-10   1.
3000002    2    3    0    0    0  -4.9313777570E+01   1.9946536144E+01  -4.9643490781E+02   4.9937694245E+02   1.0000000000E+01  1.959E-11   1.
3000001    1    4    0    0    0   4.0465620354E+01  -1.8428478385E+01  -1.1416411363E+03   1.1425071375E+03   1.0000000000E+00     0.000   1.
3000022   2   4   0   0   0   8.8481572158E+00   -1.5180577590E+00   -3.5156033554E+02   3.5167502955E+02   2.5000000000E-01   1.444220E+00   0.
3000001    1    5    0    0    0  -3.3445120489E+01   1.1136940505E+01  -3.6391440177E+02   3.6561906315E+02   1.0000000000E+00     0.000   1.
3000022   2   5   0   0   0   -1.5868657081E+01   8.8095956393E+00   -1.3252050604E+02   1.3375787930E+02   2.5000000000E-01   1.438132E+00   0.
13    1    7    0    0    0   6.6510206073E+00  -1.1192837369E+00  -2.6350324979E+02   2.6358957215E+02   1.0500000000E-01     0.000   1.
-13    1    7    0    0    0   2.1971366085E+00  -3.9877402214E-01  -8.8057085752E+01   8.8085457404E+01   1.0500000000E-01     0.000  -1.
13    1    9    0    0    0  -1.1299483876E+01   6.2410359752E+00  -9.4481142671E+01   9.5358933568E+01   1.0500000000E-01     0.000  -1.
-13    1    9    0    0    0  -4.5691732045E+00   2.5685596641E+00  -3.8039363372E+01   3.8398945732E+01   1.0500000000E-01     0.000   1.
</event>
<event>
 13   1  9.2978750E-05  1.2500000E+02  7.5467720E-03  1.2380620E-01
   21   -1    0    0  502  501   0.0000000000E+00   0.0000000000E+00   3.5594101118E+02   3.5594101118E+02   0.0000000000E+00     0.000   1.
   21   -1    0    0  501  502   0.0000000000E+00   0.0000000000E+00  -1.0974430811E+01   1.0974430811E+01   0.0000000000E+00     0.000   1.
   25    2    1    2    0    0   0.0000000000E+00   0.0000000000E+00   3.4496658037E+02   3.6691544199E+02   1.2500000000E+02  7.465E-08  -1.
3000002    2    3    0    0    0  -3.7646507212E+01  -4.7844383910E+01   1.4314393886E+02   1.5587344806E+02   1.0000000000E+01  2.789E-09  -1.
3000002    2    3    0    0    0   3.7646507212E+01   4.7844383910E+01   2.0182264151E+02   2.1104199393E+02   1.0000000000E+01  7.090E-10  -1.
3000001    1    4    0    0    0  -5.8311330460E+00  -1.1260214155E+01   2.2410202666E+01   2.5768424844E+01   1.0000000000E+00     0.000  -1.
3000022   2   4   0   0   0   -3.1815374166E+01   -3.6584169755E+01   1.2073373620E+02   1.3010502322E+02   2.5000000000E-01   1.067500E+01   0.
3000001    1    5    0    0    0   1.2715313329E+01   1.6211406353E+01   8.5146384236E+01   8.7609335333E+01   1.0000000000E+00     0.000   1.
3000022   2   5   0   0   0   2.4931193882E+01   3.1632977557E+01   1.1667625727E+02   1.2343265860E+02   2.5000000000E-01   3.697864E-01   0.
13    1    7    0    0    0  -1.8884230054E+01  -2.1726364452E+01   7.1853359855E+01   7.7405202696E+01   1.0500000000E-01     0.000  -1.
-13    1    7    0    0    0  -1.2931144111E+01  -1.4857805302E+01   4.8880376342E+01   5.2699820520E+01   1.0500000000E-01     0.000   1.
13    1    9    0    0    0   1.7967626367E+01   2.2733248621E+01   8.3931561509E+01   8.8792760023E+01   1.0500000000E-01     0.000   1.
-13    1    9    0    0    0   6.9635675156E+00   8.8997289356E+00   3.2744695761E+01   3.4639898573E+01   1.0500000000E-01     0.000  -1.
</event>
<event>
 13   1  9.2978750E-05  1.2500000E+02  7.5467720E-03  1.2380620E-01
   21   -1    0    0  502  501   0.0000000000E+00   0.0000000000E+00   3.7535258533E+01   3.7535258533E+01   0.0000000000E+00     0.000  -1.
   21   -1    0    0  501  502   0.0000000000E+00   0.0000000000E+00  -1.0406881830E+02   1.0406881830E+02   0.0000000000E+00     0.000  -1.
   25    2    1    2    0    0   0.0000000000E+00   0.0000000000E+00  -6.6533559762E+01   1.4160407683E+02   1.2500000000E+02  3.101E-08  -1.
3000002    2    3    0    0    0  -5.7379739329E+01  -2.0546016306E+01  -2.2420138095E+01   6.5705676039E+01   1.0000000000E+01  2.352E-10   1.
3000002    2    3    0    0    0   5.7379739329E+01   2.0546016306E+01  -4.4113421667E+01   7.5898400791E+01   1.0000000000E+01  1.477E-10   1.
3000001    1    4    0    0    0  -4.2061242632E+01  -1.0287002740E+01  -1.6306366995E+01   4.6280321539E+01   1.0000000000E+00     0.000   1.
3000022   2   4   0   0   0   -1.5318496697E+01   -1.0259013566E+01   -6.1137710995E+00   1.9425354500E+01   2.5000000000E-01   7.437093E+00   0.
3000001    1    5    0    0    0   1.7610030245E+01   1.0148206663E+01  -1.8231096041E+01   2.7321642092E+01   1.0000000000E+00     0.000   1.
3000022   2   5   0   0   0   3.9769709084E+01   1.0397809643E+01   -2.5882325626E+01   4.8576758700E+01   2.5000000000E-01   5.603897E-01   0.
13    1    7    0    0    0  -9.1848428275E+00  -6.0763519598E+00  -3.6642401980E+00   1.1606940688E+01   1.0500000000E-01     0.000   1.
-13    1    7    0    0    0  -6.1336538691E+00  -4.1826616058E+00  -2.4495309015E+00   7.8184138118E+00   1.0500000000E-01     0.000  -1.
13    1    9    0    0    0   1.7854445321E+01   4.6427355041E+00  -1.1542588326E+01   2.1761860696E+01   1.0500000000E-01     0.000  -1.
-13    1    9    0    0    0   2.1915263763E+01   5.7550741389E+00  -1.4339737300E+01   2.6814898004E+01   1.0500000000E-01     0.000   1.
</event>
<event>
 13   1  9.2978750E-05  1.2500000E+02  7.5467720E-03  1.2380620E-01
   21   -1    0    0  502  501   0.0000000000E+00   0.0000000000E+00   3.1805034676E+01   3.1805034676E+01   0.0000000000E+00     0.000  -1.
   21   -1    0    0  501  502   0.0000000000E+00   0.0000000000E+00  -1.2281860529E+02   1.2281860529E+02   0.0000000000E+00     0.000  -1.
   25    2    1    2    0    0   0.0000000000E+00   0.0000000000E+00  -9.1013570613E+01   1.5462363996E+02   1.2500000000E+02  2.011E-08  -1.
3000002    2    3    0    0    0  -5.9271015140E+01  -1.1008401458E+01  -2.9283265726E+01   6.7762436423E+01   1.0000000000E+01  3.109E-10  -1.
3000002    2    3    0    0    0   5.9271015140E+01   1.1008401458E+01  -6.1730304887E+01   8.6861203537E+01   1.0000000000E+01  1.506E-09  -1.
3000001    1    4    0    0    0  -2.1830059788E+01   3.0289201925E-01  -8.3150531939E+00   2.3383399316E+01   1.0000000000E+00     0.000   1.
3000022   2   4   0   0   0   -3.7440955352E+01   -1.1311293477E+01   -2.0968212532E+01   4.4379037108E+01   2.5000000000E-01   1.066304E+01   0.
3000001    1    5    0    0    0   2.9620744632E+01   3.1922058412E+00  -2.4192752926E+01   3.8390988328E+01   1.0000000000E+00     0.000  -1.
3000022   2   5   0   0   0   2.9650270508E+01   7.8161956168E+00   -3.7537551961E+01   4.8470215208E+01   2.5000000000E-01   1.267065E+01   0.
13    1    7    0    0    0  -2.3248285928E+01  -6.9849239583E+00  -1.3068435702E+01   2.7569312614E+01   1.0500000000E-01     0.000  -1.
-13    1    7    0    0    0  -1.4192669423E+01  -4.3263695189E+00  -7.8997768302E+00   1.6809724493E+01   1.0500000000E-01     0.000   1.
13    1    9    0    0    0   1.3973056289E+01   3.7464199703E+00  -1.7663769016E+01   2.2832032882E+01   1.0500000000E-01     0.000   1.
-13    1    9    0    0    0   1.5677214219E+01   4.0697756466E+00  -1.9873782945E+01   2.5638182327E+01   1.0500000000E-01     0.000  -1.
</event>
<event>
 13   1  9.2978750E-05  1.2500000E+02  7.5467720E-03  1.2380620E-01
   21   -1    0    0  502  501   0.0000000000E+00   0.0000000000E+00   9.2799249527E+01   9.2799249527E+01   0.0000000000E+00     0.000   1.
   21   -1    0    0  501  502   0.0000000000E+00   0.0000000000E+00  -4.2093551617E+01   4.2093551617E+01   0.0000000000E+00     0.000   1.
   25    2    1    2    0    0   0.0000000000E+00   0.0000000000E+00   5.0705697910E+01   1.3489280114E+02   1.2500000000E+02  1.348E-07  -1.
3000002    2    3    0    0    0   4.5067510711E+01   3.5224553625E+01   5.0299491650E+01   7.6823749974E+01   1.0000000000E+01  4.813E-10  -1.
3000002    2    3    0    0    0  -4.5067510711E+01  -3.5224553625E+01   4.0620626007E-01   5.8069051166E+01   1.0000000000E+01  2.652E-10  -1.
3000001    1    4    0    0    0   2.0207241169E+01   1.7263680563E+01   1.7068580593E+01   3.1602273743E+01   1.0000000000E+00     0.000   1.
3000022   2   4   0   0   0   2.4860269543E+01   1.7960873062E+01   3.3230911057E+01   4.5221476231E+01   2.5000000000E-01   3.083067E-01   0.
3000001    1    5    0    0    0  -5.2572149927E+00  -8.0801744506E+00  -1.6954616327E+00   9.8388067762E+00   1.0000000000E+00     0.000  -1.
3000022   2   5   0   0   0   -3.9810295719E+01   -2.7144379174E+01   2.1016678928E+00   4.8230244390E+01   2.5000000000E-01   7.612271E-01   0.
13    1    7    0    0    0   1.4893075624E+01   1.0686991719E+01   1.9894749338E+01   2.7052311727E+01   1.0500000000E-01     0.000  -1.
-13    1    7    0    0    0   9.9671939187E+00   7.2738813430E+00   1.3336161718E+01   1.8169164504E+01   1.0500000000E-01     0.000   1.
13    1    9    0    0    0  -1.5942373897E+01  -1.0904117894E+01   8.9909495025E-01   1.9335937248E+01   1.0500000000E-01     0.000  -1.
-13    1    9    0    0    0  -2.3867921821E+01  -1.6240261280E+01   1.2025729425E+00   2.8894307141E+01   1.0500000000E-01     0.000   1.
</event>
<event>
 13   1  9.2978750E-05  1.2500000E+02  7.5467720E-03  1.2380620E-01
   21   -1    0    0  502  501   0.0000000000E+00   0.0000000000E+00   2.5770948115E+02   2.5770948115E+02   0.0000000000E+00     0.000  -1.
   21   -1    0    0  501  502   0.0000000000E+00   0.0000000000E+00  -1.5157571939E+01   1.5157571939E+01   0.0000000000E+00     0.000  -1.
   25    2    1    2    0    0   0.0000000000E+00   0.0000000000E+00   2.4255190921E+02   2.7286705309E+02   1.2500000000E+02  2.216E-08  -1.
3000002    2    3    0    0    0  -4.3264486621E+01  -4.3943573828E+01   1.1725288110E+02   1.3285741082E+02   1.0000000000E+01  1.516E-10   1.
3000002    2    3    0    0    0   4.3264486621E+01   4.3943573828E+01   1.2529902811E+02   1.4000964227E+02   1.0000000000E+01  5.214E-10   1.
3000001    1    4    0    0    0  -2.7964561269E+00  -3.7332030893E-01   6.2566311754E+00   6.9357745485E+00   1.0000000000E+00     0.000   1.
3000022   2   4   0   0   0   -4.0468030494E+01   -4.3570253519E+01   1.1099624992E+02   1.2592163627E+02   2.5000000000E-01   3.649633E+00   0.
3000001    1    5    0    0    0   1.5730983687E+01   1.3417101931E+01   3.2784391708E+01   3.8772397548E+01   1.0000000000E+00     0.000  -1.
3000022   2   5   0   0   0   2.7533502934E+01   3.0526471898E+01   9.2514636403E+01   1.0123724472E+02   2.5000000000E-01   1.274771E+00   0.
13    1    7    0    0    0  -2.3087228055E+01  -2.4933250760E+01   6.3512523708E+01   7.2031512447E+01   1.0500000000E-01     0.000   1.
-13    1    7    0    0    0  -1.7380802440E+01  -1.8637002760E+01   4.7483726216E+01   5.3890123823E+01   1.0500000000E-01     0.000  -1.
13    1    9    0    0    0   2.1234372588E+01   2.3542396671E+01   7.1351910356E+01   7.8078480753E+01   1.0500000000E-01     0.000  -1.
-13    1    9    0    0    0   6.2991303462E+00   6.9840752262E+00   2.1162726046E+01   2.3158763969E+01   1.0500000000E-01     0.000   1.
</event>
<event>
 13   1  9.2978750E-05  1.2500000E+02  7.5467720E-03  1.2380620E-01
   21   -1    0    0  502  501   0.0000000000E+00   0.0000000000E+00   3.6890947121E+01   3.6890947121E+01   0.0000000000E+00     0.000   1.
   21   -1    0    0  501  502   0.0000000000E+00   0.0000000000E+00  -1.0588641130E+02   1.0588641130E+02   0.0000000000E+00     0.000   1.
   25    2    1    2    0    0   0.0000000000E+00   0.0000000000E+00  -6.8995464177E+01   1.4277735842E+02   1.2500000000E+02  6.687E-09  -1.
3000002    2    3    0    0    0  -2.8328669208E+00   2.7327842736E+01  -9.7593450275E+01   1.0187893629E+02   1.0000000000E+01  7.024E-10   1.
3000002    2    3    0    0    0   2.8328669208E+00  -2.7327842736E+01   2.8597986098E+01   4.0898422127E+01   1.0000000000E+01  3.414E-10   1.
3000001    1    4    0    0    0  -4.0504877451E+00   9.7207494674E+00  -2.4530715302E+01   2.6714329758E+01   1.0000000000E+00     0.000  -1.
3000022   2   4   0   0   0   1.2176208243E+00   1.7607093269E+01   -7.3062734973E+01   7.5164606535E+01   2.5000000000E-01   2.185589E-01   0.
3000001    1    5    0    0    0   1.2254920757E+00  -1.5220610113E+01   2.2589553121E+01   2.7284734070E+01   1.0000000000E+00     0.000   1.
3000022   2   5   0   0   0   1.6073748452E+00   -1.2107232623E+01   6.0084329770E+00   1.3613688057E+01   2.5000000000E-01   2.072909E-01   0.
13    1    7    0    0    0   7.1555294830E-01   1.0240803648E+01  -4.2222686646E+01   4.3452875256E+01   1.0500000000E-01     0.000  -1.
-13    1    7    0    0    0   5.0206787596E-01   7.3662896206E+00  -3.0840048327E+01   3.1711731280E+01   1.0500000000E-01     0.000   1.
13    1    9    0    0    0   6.6232544491E-01  -4.7070369001E+00   2.2834096970E+00   5.2744531677E+00   1.0500000000E-01     0.000   1.
-13    1    9    0    0    0   9.4504940024E-01  -7.4001957227E+00   3.7250232800E+00   8.3392348894E+00   1.0500000000E-01     0.000  -1.
</event>
<event>
 13   1  9.2978750E-05  1.2500000E+02  7.5467720E-03  1.2380620E-01
   21   -1    0    0  502  501   0.0000000000E+00   0.0000000000E+00   7.3321036883E+01   7.3321036883E+01   0.0000000000E+00     0.000   1.
   21   -1    0    0  501  502   0.0000000000E+00   0.0000000000E+00  -5.3275978710E+01   5.3275978710E+01   0.0000000000E+00     0.000   1.
   25    2    1    2    0    0   0.0000000000E+00   0.0000000000E+00   2.0045058172E+01   1.2659701559E+02   1.2500000000E+02  1.726E-07  -1.
3000002    2    3    0    0    0  -1.1835430527E+01   5.2897502097E+01  -1.9816180374E+01   5.8573920378E+01   1.0000000000E+01  3.114E-09   1.
3000002    2    3    0    0    0   1.1835430527E+01  -5.2897502097E+01   3.9861238546E+01   6.8023095212E+01   1.0000000000E+01  3.295E-10   1.
3000001    1    4    0    0    0  -8.3538052035E+00   3.5898787844E+01  -1.8275694664E+01   4.1152278740E+01   1.0000000000E+00     0.000   1.
3000022   2   4   0   0   0   -3.4816253231E+00   1.6998714252E+01   -1.5404857100E+00   1.7421641637E+01   2.5000000000E-01   1.228867E+01   0.
3000001    1    5    0    0    0   7.4286172587E+00  -1.3728723040E+01   9.8920267832E+00   1.8507144150E+01   1.0000000000E+00     0.000   1.
3000022   2   5   0   0   0   4.4068132679E+00   -3.9168779056E+01   2.9969211763E+01   4.9515951063E+01   2.5000000000E-01   4.289942E+00   0.
13    1    7    0    0    0  -2.2714053645E+00   1.0799430189E+01  -9.8656319727E-01   1.1080221419E+01   1.0500000000E-01     0.000  -1.
-13    1    7    0    0    0  -1.2102199586E+00   6.1992840629E+00  -5.5392251274E-01   6.3414202188E+00   1.0500000000E-01     0.000   1.
13    1    9    0    0    0   2.8516241744E+00  -2.5801719605E+01   1.9711039959E+01   3.2594426154E+01   1.0500000000E-01     0.000  -1.
-13    1    9    0    0    0   1.5551890935E+00  -1.3367059451E+01   1.0258171804E+01   1.6921524909E+01   1.0500000000E-01     0.000   1.
</event>
<event>
 13   1  9.2978750E-05  1.2500000E+02  7.5467720E-03  1.2380620E-01
   21   -1    0    0  502  501   0.0000000000E+00   0.0000000000E+00   5.7622752589E+02   5.7622752589E+02   0.0000000000E+00     0.000   1.
   21   -1    0    0  501  502   0.0000000000E+00   0.0000000000E+00  -6.7790062510E+00   6.7790062510E+00   0.0000000000E+00     0.000   1.
   25    2    1    2    0    0   0.0000000000E+00   0.0000000000E+00   5.6944851964E+02   5.8300653214E+02   1.2500000000E+02  1.186E-07  -1.
3000002    2    3    0    0    0  -3.7866571806E+01   4.5805569633E+01   3.6195940623E+02   3.6694228324E+02   1.0000000000E+01  4.465E-10  -1.
3000002    2    3    0    0    0   3.7866571806E+01  -4.5805569633E+01   2.0748911341E+02   2.1606424890E+02   1.0000000000E+01  3.570E-10  -1.
3000001    1    4    0    0    0  -2.7225750573E+01   2.8862124454E+01   2.1578199673E+02   2.1940176352E+02   1.0000000000E+00     0.000  -1.
3000022   2   4   0   0   0   -1.0640821233E+01   1.6943445179E+01   1.4617740950E+02   1.4754051972E+02   2.5000000000E-01   2.313610E+01   -1.
3000001    1    5    0    0    0   2.4410051698E+00  -6.9060240508E+00   1.9610412530E+01   2.0957575099E+01   1.0000000000E+00     0.000  -1.
3000022   2   5   0   0   0   3.5425566637E+01   -3.8899545582E+01   1.8787870088E+02   1.9510667380E+02   2.5000000000E-01   3.174881E+00   0.
13    1    7    0    0    0  -4.2307509257E+00   6.8293478194E+00   5.8403809094E+01   5.8953839457E+01   1.0500000000E-01     0.000  -1.
-13    1    7    0    0    0  -6.4100703075E+00   1.0114097360E+01   8.7773600403E+01   8.8586680260E+01   1.0500000000E-01     0.000  -1.
13    1    9    0    0    0   1.8125590797E+01  -2.0001395623E+01   9.6441399978E+01   1.0014762865E+02   1.0500000000E-01     0.000  -1.
-13    1    9    0    0    0   1.7299975839E+01  -1.8898149959E+01   9.1437300900E+01   9.4959045156E+01   1.0500000000E-01     0.000   1.
</event>
<event>
 13   1  9.2978750E-05  1.2500000E+02  7.5467720E-03  1.2380620E-01
   21   -1    0    0  502  501   0.0000000000E+00   0.0000000000E+00   1.9130901811E+01   1.9130901811E+01   0.0000000000E+00     0.000   1.
   21   -1    0    0  501  502   0.0000000000E+00   0.0000000000E+00  -2.0418535616E+02   2.0418535616E+02   0.0000000000E+00     0.000   1.
   25    2    1    2    0    0   0.0000000000E+00   0.0000000000E+00  -1.8505445435E+02   2.2331625797E+02   1.2500000000E+02  4.478E-09  -1.
3000002    2    3    0    0    0   5.0481374362E+01  -3.0439626060E+01  -6.0008944191E+01   8.4711353283E+01   1.0000000000E+01  9.463E-10  -1.
3000002    2    3    0    0    0  -5.0481374362E+01   3.0439626060E+01  -1.2504551016E+02   1.3860490469E+02   1.0000000000E+01  4.783E-11  -1.
3000001    1    4    0    0    0   6.4039773975E+00  -3.7009054403E+00  -3.5798984121E+00   8.2778801771E+00   1.0000000000E+00     0.000  -1.
3000022   2   4   0   0   0   4.4077396965E+01   -2.6738720620E+01   -5.6429045779E+01   7.6433473106E+01   2.5000000000E-01   3.029192E-01   0.
3000001    1    5    0    0    0  -1.8056960428E+01   1.1667539705E+01  -3.5170514334E+01   4.1232879856E+01   1.0000000000E+00     0.000  -1.
3000022   2   5   0   0   0   -3.2424413935E+01   1.8772086355E+01   -8.9874995825E+01   9.7372024831E+01   2.5000000000E-01   2.577871E+00   0.
13    1    7    0    0    0   2.7672460101E+01  -1.6724112378E+01  -3.5351921286E+01   4.7908562350E+01   1.0500000000E-01     0.000  -1.
-13    1    7    0    0    0   1.6404936864E+01  -1.0014608242E+01  -2.1077124493E+01   2.8524910756E+01   1.0500000000E-01     0.000   1.
13    1    9    0    0    0  -8.2401688893E+00   4.7481629736E+00  -2.2760156532E+01   2.4667411403E+01   1.0500000000E-01     0.000   1.
-13    1    9    0    0    0  -2.4184245045E+01   1.4023923382E+01  -6.7114839293E+01   7.2704613428E+01   1.0500000000E-01     0.000  -1.
</event>
<event>
 13   1  9.2978750E-05  1.2500000E+02  7.5467720E-03  1.2380620E-01
   21   -1    0    0  502  501   0.0000000000E+00   0.0000000000E+00   1.0943846817E+01   1.0943846817E+01   0.0000000000E+00     0.000  -1.
   21   -1    0    0  501  502   0.0000000000E+00   0.0000000000E+00  -3.5693573434E+02   3.5693573434E+02   0.0000000000E+00     0.000  -1.
   25    2    1    2    0    0   0.0000000000E+00   0.0000000000E+00  -3.4599188753E+02   3.6787958116E+02   1.2500000000E+02  3.959E-09  -1.
3000002    2    3    0    0    0   2.0940813923E+01  -1.8366196597E+01  -1.0984111564E+01   3.1567159708E+01   1.0000000000E+01  6.955E-10   1.
3000002    2    3    0    0    0  -2.0940813923E+01   1.8366196597E+01  -3.3500777597E+02   3.3631242145E+02   1.0000000000E+01  3.458E-10   1.
3000001    1    4    0    0    0   1.6315201112E+01  -8.2549060965E+00  -8.4119947339E+00   2.0151697631E+01   1.0000000000E+00     0.000   1.
3000022   2   4   0   0   0   4.6256128110E+00   -1.0111290500E+01   -2.5721168305E+00   1.1415462078E+01   2.5000000000E-01   8.888398E+00   0.
3000001    1    5    0    0    0  -1.5377282948E+01   9.2932982831E+00  -1.6674576697E+02   1.6771397386E+02   1.0000000000E+00     0.000   1.
3000022   2   5   0   0   0   -5.5635309751E+00   9.0728983138E+00   -1.6826200899E+02   1.6859844759E+02   2.5000000000E-01   1.431221E+01   0.
13    1    7    0    0    0   3.1966085962E+00  -7.0885684635E+00  -1.7792038435E+00   7.9776375385E+00   1.0500000000E-01     0.000   1.
-13    1    7    0    0    0   1.4290042148E+00  -3.0227220369E+00  -7.9291298698E-01   3.4378245394E+00   1.0500000000E-01     0.000  -1.
13    1    9    0    0    0  -2.3689150877E+00   3.9880598187E+00  -7.3191375114E+01   7.3338290107E+01   1.0500000000E-01     0.000   1.
-13    1    9    0    0    0  -3.1946158874E+00   5.0848384951E+00  -9.5070633877E+01   9.5260157485E+01   1.0500000000E-01     0.000  -1.
</event>
<event>
 13   1  9.2978750E-05  1.2500000E+02  7.5467720E-03  1.2380620E-01
   21   -1    0    0  502  501   0.0000000000E+00   0.0000000000E+00   6.5774588661E+02   6.5774588661E+02   0.0000000000E+00     0.000  -1.
   21   -1    0    0  501  502   0.0000000000E+00   0.0000000000E+00  -5.9388436773E+00   5.9388436773E+00   0.0000000000E+00     0.000  -1.
   25    2    1    2    0    0   0.0000000000E+00   0.0000000000E+00   6.5180704293E+02   6.6368473029E+02   1.2500000000E+02  2.991E-08  -1.
3000002    2    3    0    0    0   3.1346902716E+01   1.7612883349E+01   5.9718684884E+01   7.0421326983E+01   1.0000000000E+01  1.740E-10  -1.
3000002    2    3    0    0    0  -3.1346902716E+01  -1.7612883349E+01   5.9208835805E+02   5.9326340331E+02   1.0000000000E+01  1.022E-09  -1.
3000001    1    4    0    0    0   1.7089018304E+01   4.1018510210E+00   2.6021070560E+01   3.1415853347E+01   1.0000000000E+00     0.000   1.
3000022   2   4   0   0   0   1.4257884412E+01   1.3511032328E+01   3.3697614323E+01   3.9005473636E+01   2.5000000000E-01   4.788315E-01   0.
3000001    1    5    0    0    0  -2.9237541469E+01  -1.4600207548E+01   4.7876896299E+02   4.7988406914E+02   1.0000000000E+00     0.000  -1.
3000022   2   5   0   0   0   -2.1093612478E+00   -3.0126758012E+00   1.1331939506E+02   1.1337933417E+02   2.5000000000E-01   3.098347E+00   0.
13    1    7    0    0    0   9.4569872712E+00   8.9806348322E+00   2.2476286008E+01   2.5986166857E+01   1.0500000000E-01     0.000  -1.
-13    1    7    0    0    0   4.8008971407E+00   4.5303974957E+00   1.1221328316E+01   1.3019306778E+01   1.0500000000E-01     0.000   1.
13    1    9    0    0    0  -1.2929749902E+00  -1.8646964265E+00   6.7999003836E+01   6.8036934270E+01   1.0500000000E-01     0.000   1.
-13    1    9    0    0    0  -8.1638625759E-01  -1.1479793747E+00   4.5320391219E+01   4.5342399897E+01   1.0500000000E-01     0.000  -1.
</event>
<event>
 13   1  9.2978750E-05  1.2500000E+02  7.5467720E-03  1.2380620E-01
   21   -1    0    0  502  501   0.0000000000E+00   0.0000000000E+00   1.6744289661E+01   1.6744289661E+01   0.0000000000E+00     0.000   1.
   21   -1    0    0  501  502   0.0000000000E+00   0.0000000000E+00  -2.3328848695E+02   2.3328848695E+02   0.0000000000E+00     0.000   1.
   25    2    1    2    0    0   0.0000000000E+00   0.0000000000E+00  -2.1654419728E+02   2.5003277661E+02   1.2500000000E+02  5.362E-08  -1.
3000002    2    3    0    0    0  -5.6815886970E+01  -1.8289531280E+01  -1.3949785334E+02   1.5205986668E+02   1.0000000000E+01  9.728E-10   1.
3000002    2    3    0    0    0   5.6815886970E+01   1.8289531280E+01  -7.7046343935E+01   9.7972909931E+01   1.0000000000E+01  1.006E-09   1.
3000001    1    4    0    0    0  -2.5948148880E+01  -6.4003738064E+00  -5.1103450302E+01   5.7678712260E+01   1.0000000000E+00     0.000   1.
3000022   2   4   0   0   0   -3.0867738089E+01   -1.1889157474E+01   -8.8394403043E+01   9.4381154419E+01   2.5000000000E-01   1.370338E+00   0.
3000001    1    5    0    0    0   5.5853903136E+01   1.9260387658E+01  -7.5763031992E+01   9.6081517707E+01   1.0000000000E+00     0.000   1.
3000022   2   5   0   0   0   9.6198383342E-01   -9.7085637757E-01   -1.2833119431E+00   1.8913922240E+00   2.5000000000E-01   1.160871E+00   1.
13    1    7    0    0    0  -1.8406047421E+01  -7.0233949278E+00  -5.2600410521E+01   5.6168717895E+01   1.0500000000E-01     0.000   1.
-13    1    7    0    0    0  -1.2461690668E+01  -4.8657625461E+00  -3.5793992522E+01   3.8212436525E+01   1.0500000000E-01     0.000  -1.
13    1    9    0    0    0   5.3461082901E-01  -5.1925920666E-01  -6.0879780724E-01   9.6803854897E-01   1.0500000000E-01     0.000   1.
-13    1    9    0    0    0   4.2737300441E-01  -4.5159717091E-01  -6.7451413589E-01   9.2335367503E-01   1.0500000000E-01     0.000   1.
</event>
<event>
 13   1  9.2978750E-05  1.2500000E+02  7.5467720E-03  1.2380620E-01
   21   -1    0    0  502  501   0.0000000000E+00   0.0000000000E+00   2.6489270576E+00   2.6489270576E+00   0.0000000000E+00     0.000   1.
   21   -1    0    0  501  502   0.0000000000E+00   0.0000000000E+00  -1.4746536673E+03   1.4746536673E+03   0.0000000000E+00     0.000   1.
   25    2    1    2    0    0   0.0000000000E+00   0.0000000000E+00  -1.4720047403E+03   1.4773025944E+03   1.2500000000E+02  1.418E-08  -1.
3000002    2    3    0    0    0   6.0094243417E+01   3.3648525050E+00  -5.7585964421E+02   5.7908286985E+02   1.0000000000E+01  1.446E-10   1.
3000002    2    3    0    0    0  -6.0094243417E+01  -3.3648525050E+00  -8.9614509609E+02   8.9821972455E+02   1.0000000000E+01  9.397E-11   1.
3000001    1    4    0    0    0   4.7722731501E+01  -1.2473216484E+00  -4.6122173539E+02   4.6368685997E+02   1.0000000000E+00     0.000   1.
3000022   2   4   0   0   0   1.2371511916E+01   4.6121741534E+00   -1.1463790882E+02   1.1539600988E+02   2.5000000000E-01   1.932344E+00   0.
3000001    1    5    0    0    0  -4.1079623589E+00   1.2505107102E-01  -1.0690041728E+02   1.0698406520E+02   1.0000000000E+00     0.000  -1.
3000022   2   5   0   0   0   -5.5986281058E+01   -3.4899035760E+00   -7.8924467881E+02   7.9123565935E+02   2.5000000000E-01   1.759992E-01   0.
13    1    7    0    0    0   6.2086849130E+00   2.2636863005E+00  -5.7797855340E+01   5.8174523212E+01   1.0500000000E-01     0.000   1.
-13    1    7    0    0    0   6.1628270026E+00   2.3484878529E+00  -5.6840053480E+01   5.7221486668E+01   1.0500000000E-01     0.000  -1.
13    1    9    0    0    0  -1.7650971176E+01  -1.0926428996E+00  -2.4813155490E+02   2.4876099014E+02   1.0500000000E-01     0.000  -1.
-13    1    9    0    0    0  -3.8335309882E+01  -2.3972606764E+00  -5.4111312391E+02   5.4247466921E+02   1.0500000000E-01     0.000   1.
</event>
<event>
 13   1  9.2978750E-05  1.2500000E+02  7.5467720E-03  1.2380620E-01
   21   -1    0    0  502  501   0.0000000000E+00   0.0000000000E+00   3.5813294774E+01   3.5813294774E+01   0.0000000000E+00     0.000   1.
   21   -1    0    0  501  502   0.0000000000E+00   0.0000000000E+00  -1.0907262302E+02   1.0907262302E+02   0.0000000000E+00     0.000   1.
   25    2    1    2    0    0   0.0000000000E+00   0.0000000000E+00  -7.3259328244E+01   1.4488591779E+02   1.2500000000E+02  9.118E-09  -1.
3000002    2    3    0    0    0  -2.8376107986E+01   4.1116484482E+01  -7.8589285488E+01   9.3659193858E+01   1.0000000000E+01  3.341E-10  -1.
3000002    2    3    0    0    0   2.8376107986E+01  -4.1116484482E+01   5.3299572440E+00   5.1226723932E+01   1.0000000000E+01  3.185E-11  -1.
3000001    1    4    0    0    0  -2.7578562183E+00   8.8635795392E-01  -3.0565549858E+00   4.3282709856E+00   1.0000000000E+00     0.000  -1.
3000022   2   4   0   0   0   -2.5618251768E+01   4.0230126528E+01   -7.5532730502E+01   8.9330922872E+01   2.5000000000E-01   9.968467E-01   0.
3000001    1    5    0    0    0   1.8160762952E+01  -2.5897423908E+01   8.1521813461E+00   3.2679472712E+01   1.0000000000E+00     0.000  -1.
3000022   2   5   0   0   0   1.0215345035E+01   -1.5219060574E+01   -2.8222241021E+00   1.8547251220E+01   2.5000000000E-01   1.165434E+01   0.
13    1    7    0    0    0  -1.3844107407E+01   2.1663375523E+01  -4.0615960215E+01   4.8068996225E+01   1.0500000000E-01     0.000   1.
-13    1    7    0    0    0  -1.1774144361E+01   1.8566751005E+01  -3.4916770287E+01   4.1261926647E+01   1.0500000000E-01     0.000  -1.
13    1    9    0    0    0   7.5077583437E+00  -1.1173610325E+01  -2.0386599993E+00   1.3615548562E+01   1.0500000000E-01     0.000   1.
-13    1    9    0    0    0   2.7075866909E+00  -4.0454502483E+00  -7.8356410280E-01   4.9317026577E+00   1.0500000000E-01     0.000  -1.
</event>
<event>
 13   1  9.2978750E-05  1.2500000E+02  7.5467720E-03  1.2380620E-01
   21   -1    0    0  502  501   0.0000000000E+00   0.0000000000E+00   8.3541717485E+01   8.3541717485E+01   0.0000000000E+00     0.000  -1.
   21   -1    0    0  501  502   0.0000000000E+00   0.0000000000E+00  -4.6758076295E+01   4.6758076295E+01   0.0000000000E+00     0.000  -1.
   25    2    1    2    0    0   0.0000000000E+00   0.0000000000E+00   3.6783641190E+01   1.3029979378E+02   1.2500000000E+02  1.645E-07  -1.
3000002    2    3    0    0    0   4.1532997143E+01  -3.8407813437E+01  -7.2710871571E+00   5.7905256179E+01   1.0000000000E+01  6.441E-10  -1.
3000002    2    3    0    0    0  -4.1532997143E+01   3.8407813437E+01   4.4054728347E+01   7.2394537601E+01   1.0000000000E+01  1.562E-10  -1.
3000001    1    4    0    0    0   2.4369306802E+00  -1.8303633155E+00  -2.6609412988E+00   4.1676695649E+00   1.0000000000E+00     0.000   1.
3000022   2   4   0   0   0   3.9096066463E+01   -3.6577450122E+01   -4.6101458583E+00   5.3737586614E+01   2.5000000000E-01   7.564541E-01   0.
3000001    1    5    0    0    0  -1.5759434553E+01   1.6688258812E+01   2.3755493160E+01   3.3048165076E+01   1.0000000000E+00     0.000   1.
3000022   2   5   0   0   0   -2.5773562590E+01   2.1719554625E+01   2.0299235187E+01   3.9346372525E+01   2.5000000000E-01   4.348349E-01   0.
13    1    7    0    0    0   1.2822247645E+01  -1.2033225601E+01  -1.5593993544E+00   1.7653648473E+01   1.0500000000E-01     0.000   1.
-13    1    7    0    0    0   2.6273818818E+01  -2.4544224520E+01  -3.0507465039E+00   3.6083938142E+01   1.0500000000E-01     0.000  -1.
13    1    9    0    0    0  -6.3321272886E+00   5.3252038845E+00   4.9576077699E+00   9.6458557014E+00   1.0500000000E-01     0.000   1.
-13    1    9    0    0    0  -1.9441435301E+01   1.6394350741E+01   1.5341627417E+01   2.9700516823E+01   1.0500000000E-01     0.000  -1.
</event>
<event>
 13   1  9.2978750E-05  1.2500000E+02  7.5467720E-03  1.2380620E-01
   21   -1    0    0  502  501   0.0000000000E+00   0.0000000000E+00   1.0189482942E+02   1.0189482942E+02   0.0000000000E+00     0.000   1.
   21   -1    0    0  501  502   0.0000000000E+00   0.0000000000E+00  -3.8336096366E+01   3.8336096366E+01   0.0000000000E+00     0.000   1.
   25    2    1    2    0    0   0.0000000000E+00   0.0000000000E+00   6.3558733059E+01   1.4023092579E+02   1.2500000000E+02  1.020E-07  -1.
3000002    2    3    0    0    0   3.2654041114E+01  -4.2428873490E+01  -2.6113280662E+00   5.4528109640E+01   1.0000000000E+01  6.862E-10   1.
3000002    2    3    0    0    0  -3.2654041114E+01   4.2428873490E+01   6.6170061125E+01   8.5702816150E+01   1.0000000000E+01  5.466E-10   1.
3000001    1    4    0    0    0   6.5455726282E-01  -9.5261876873E-01  -1.4832970627E+00   2.1298117065E+00   1.0000000000E+00     0.000  -1.
3000022   2   4   0   0   0   3.1999483851E+01   -4.1476254721E+01   -1.1280310035E+00   5.2398297934E+01   2.5000000000E-01   6.407229E-01   0.
3000001    1    5    0    0    0  -2.3108303311E+01   3.3086881193E+01   4.3171103770E+01   5.9105664616E+01   1.0000000000E+00     0.000  -1.
3000022   2   5   0   0   0   -9.5457378026E+00   9.3419922969E+00   2.2998957355E+01   2.6597151534E+01   2.5000000000E-01   1.247790E+01   0.
13    1    7    0    0    0   2.1241424195E+01  -2.7557476979E+01  -8.0096158994E-01   3.4803235536E+01   1.0500000000E-01     0.000  -1.
-13    1    7    0    0    0   1.0758059656E+01  -1.3918777742E+01  -3.2706941354E-01   1.7595062398E+01   1.0500000000E-01     0.000   1.
13    1    9    0    0    0  -5.0413167006E+00   4.9510961352E+00   1.2298924786E+01   1.4184597383E+01   1.0500000000E-01     0.000   1.
-13    1    9    0    0    0  -4.5044211021E+00   4.3908961617E+00   1.0700032569E+01   1.2412554151E+01   1.0500000000E-01     0.000  -1.
</event>
<event>
 13   1  9.2978750E-05  1.2500000E+02  7.5467720E-03  1.2380620E-01
   21   -1    0    0  502  501   0.0000000000E+00   0.0000000000E+00   6.9413959826E+00   6.9413959826E+00   0.0000000000E+00     0.000  -1.
   21   -1    0    0  501  502   0.0000000000E+00   0.0000000000E+00  -5.6274703385E+02   5.6274703385E+02   0.0000000000E+00     0.000  -1.
   25    2    1    2    0    0   0.0000000000E+00   0.0000000000E+00  -5.5580563787E+02   5.6968842984E+02   1.2500000000E+02  2.337E-07  -1.
3000002    2    3    0    0    0  -1.7613064276E+01  -7.8554001323E+00  -5.4498685691E+02   5.4541965637E+02   1.0000000000E+01  2.957E-10   1.
3000002    2    3    0    0    0   1.7613064276E+01   7.8554001323E+00  -1.0818780957E+01   2.4268773472E+01   1.0000000000E+01  4.200E-11   1.
3000001    1    4    0    0    0  -1.2064362366E+01  -9.9655610070E+00  -4.1769603682E+02   4.1799023963E+02   1.0000000000E+00     0.000   1.
3000022   2   4   0   0   0   -5.5487019105E+00   2.1101608747E+00   -1.2729082009E+02   1.2742941674E+02   2.5000000000E-01   8.571872E-01   0.
3000001    1    5    0    0    0   1.0680887972E+01   1.9177245475E+00  -1.1311141944E+00   1.0956206215E+01   1.0000000000E+00     0.000   1.
3000022   2   5   0   0   0   6.9321763045E+00   5.9376755848E+00   -9.6876667624E+00   1.3312567257E+01   2.5000000000E-01   3.742542E+00   0.
13    1    7    0    0    0  -3.2615639883E+00   1.3025164297E+00  -7.4706910959E+01   7.4789490697E+01   1.0500000000E-01     0.000  -1.
-13    1    7    0    0    0  -2.2871379222E+00   8.0764444502E-01  -5.2583909132E+01   5.2639926045E+01   1.0500000000E-01     0.000   1.
13    1    9    0    0    0   3.0322635159E+00   2.6663036931E+00  -4.2265859818E+00   5.8462681666E+00   1.0500000000E-01     0.000   1.
-13    1    9    0    0    0   3.8999127886E+00   3.2713718916E+00  -5.4610807806E+00   7.4662990902E+00   1.0500000000E-01     0.000  -1.
</event>
<event>
 13   1  9.2978750E-05  1.2500000E+02  7.5467720E-03  1.2380620E-01
   21   -1    0    0  502  501   0.0000000000E+00   0.0000000000E+00   4.7399959428E+01   4.7399959428E+01   0.0000000000E+00     0.000  -1.
   21   -1    0    0  501  502   0.0000000000E+00   0.0000000000E+00  -8.2410408092E+01   8.2410408092E+01   0.0000000000E+00     0.000  -1.
   25    2    1    2    0    0   0.0000000000E+00   0.0000000000E+00  -3.5010448664E+01   1.2981036752E+02   1.2500000000E+02  1.212E-07  -1.
3000002    2    3    0    0    0  -4.1599824273E+01  -3.9220534637E+01   6.5699882529E+00   5.8411989030E+01   1.0000000000E+01  4.152E-11  -1.
3000002    2    3    0    0    0   4.1599824273E+01   3.9220534637E+01  -4.1580436917E+01   7.1398378490E+01   1.0000000000E+01  8.256E-10  -1.
3000001    1    4    0    0    0  -2.8367309414E+01  -3.0760183730E+01   8.0913554450E+00   4.2630542800E+01   1.0000000000E+00     0.000  -1.
3000022   2   4   0   0   0   -1.3232514859E+01   -8.4603509070E+00   -1.5213671921E+00   1.5781446230E+01   2.5000000000E-01   3.340086E+00   0.
3000001    1    5    0    0    0   1.6941704109E+01   1.3698877240E+01  -1.0421226627E+01   2.4171937038E+01   1.0000000000E+00     0.000   1.
3000022   2   5   0   0   0   2.4658120165E+01   2.5521657397E+01   -3.1159210290E+01   4.7226441452E+01   2.5000000000E-01   2.858701E+00   0.
13    1    7    0    0    0  -6.5947434038E+00  -4.2956450445E+00  -7.7442511952E-01   7.9091065346E+00   1.0500000000E-01     0.000   1.
-13    1    7    0    0    0  -6.6377714553E+00  -4.1647058625E+00  -7.4694207256E-01   7.8723396950E+00   1.0500000000E-01     0.000  -1.
13    1    9    0    0    0   1.7542734593E+01   1.8098194075E+01  -2.2113363238E+01   3.3530643067E+01   1.0500000000E-01     0.000  -1.
-13    1    9    0    0    0   7.1153855714E+00   7.4234633217E+00  -9.0458470518E+00   1.3695798385E+01   1.0500000000E-01     0.000   1.
</event>
<event>
 13   1  9.2978750E-05  1.2500000E+02  7.5467720E-03  1.2380620E-01
   21   -1    0    0  502  501   0.0000000000E+00   0.0000000000E+00   5.3708199539E+02   5.3708199539E+02   0.0000000000E+00     0.000   1.
   21   -1    0    0  501  502   0.0000000000E+00   0.0000000000E+00  -7.2730980252E+00   7.2730980252E+00   0.0000000000E+00     0.000   1.
   25    2    1    2    0    0   0.0000000000E+00   0.0000000000E+00   5.2980889736E+02   5.4435509341E+02   1.2500000000E+02  2.067E-08  -1.
3000002    2    3    0    0    0  -5.0515528166E+01  -2.5638289057E+01   1.5849032185E+02   1.6860700629E+02   1.0000000000E+01  1.066E-09   1.
3000002    2    3    0    0    0   5.0515528166E+01   2.5638289057E+01   3.7131857551E+02   3.7574808712E+02   1.0000000000E+01  1.310E-09   1.
3000001    1    4    0    0    0  -3.4597067317E+01  -1.5297400682E+01   9.2521707103E+01   9.9961161557E+01   1.0000000000E+00     0.000  -1.
3000022   2   4   0   0   0   -1.5918460849E+01   -1.0340888375E+01   6.5968614743E+01   6.8645844735E+01   2.5000000000E-01   4.664803E+00   0.
3000001    1    5    0    0    0   2.6652135426E+01   8.5763138528E+00   1.9595140294E+02   1.9794403703E+02   1.0000000000E+00     0.000  -1.
3000022   2   5   0   0   0   2.3863392740E+01   1.7061975204E+01   1.7536717258E+02   1.7780405009E+02   2.5000000000E-01   4.435286E+00   0.
13    1    7    0    0    0  -1.0629080362E+01  -6.8761303089E+00   4.4165038627E+01   4.5943663103E+01   1.0500000000E-01     0.000  -1.
-13    1    7    0    0    0  -5.2893804874E+00  -3.4647580657E+00   2.1803576116E+01   2.2702181631E+01   1.0500000000E-01     0.000   1.
13    1    9    0    0    0   1.1009817955E+01   7.9343006658E+00   8.1392908445E+01   8.2516578871E+01   1.0500000000E-01     0.000   1.
-13    1    9    0    0    0   1.2853574785E+01   9.1276745383E+00   9.3974264130E+01   9.5287471218E+01   1.0500000000E-01     0.000  -1.
</event>
<event>
 13   1  9.2978750E-05  1.2500000E+02  7.5467720E-03  1.2380620E-01
   21   -1    0    0  502  501   0.0000000000E+00   0.0000000000E+00   4.4446570164E+01   4.4446570164E+01   0.0000000000E+00     0.000   1.
   21   -1    0    0  501  502   0.0000000000E+00   0.0000000000E+00  -8.7886421507E+01   8.7886421507E+01   0.0000000000E+00     0.000   1.
   25    2    1    2    0    0   0.0000000000E+00   0.0000000000E+00  -4.3439851343E+01   1.3233299167E+02   1.2500000000E+02  5.296E-09  -1.
3000002    2    3    0    0    0   4.2504644546E+01  -2.5373797487E+01   1.7260988821E+01   5.3370555009E+01   1.0000000000E+01  8.538E-11  -1.
3000002    2    3    0    0    0  -4.2504644546E+01   2.5373797487E+01  -6.0700840164E+01   7.8962436661E+01   1.0000000000E+01  5.255E-11  -1.
3000001    1    4    0    0    0   6.7405158725E+00  -8.3404452540E-01   4.3019923302E+00   8.1016863989E+00   1.0000000000E+00     0.000  -1.
3000022   2   4   0   0   0   3.5764128673E+01   -2.4539752961E+01   1.2958996491E+01   4.5268868610E+01   2.5000000000E-01   4.505017E+00   0.
3000001    1    5    0    0    0  -1.1076734311E+01   6.0164300985E+00  -2.2708463875E+01   2.5991648768E+01   1.0000000000E+00     0.000   1.
3000022   2   5   0   0   0   -3.1427910235E+01   1.9357367388E+01   -3.7992376289E+01   5.2970787893E+01   2.5000000000E-01   6.405385E+00   0.
13    1    7    0    0    0   1.1186064978E+01  -7.6508040340E+00   4.0957250022E+00   1.4157995633E+01   1.0500000000E-01     0.000  -1.
-13    1    7    0    0    0   2.4578063695E+01  -1.6888948927E+01   8.8632714885E+00   3.1110872976E+01   1.0500000000E-01     0.000   1.
13    1    9    0    0    0  -1.9679951101E+01   1.2118789855E+01  -2.3875023403E+01   3.3229404304E+01   1.0500000000E-01     0.000   1.
-13    1    9    0    0    0  -1.1747959134E+01   7.2385775330E+00  -1.4117352886E+01   1.9741383589E+01   1.0500000000E-01     0.000  -1.
</event>
<event>
 13   1  9.2978750E-05  1.2500000E+02  7.5467720E-03  1.2380620E-01
   21   -1    0    0  502  501   0.0000000000E+00   0.0000000000E+00   1.5075193372E+02   1.5075193372E+02   0.0000000000E+00     0.000   1.
   21   -1    0    0  501  502   0.0000000000E+00   0.0000000000E+00  -2.5911773756E+01   2.5911773756E+01   0.0000000000E+00     0.000   1.
   25    2    1    2    0    0   0.0000000000E+00   0.0000000000E+00   1.2484015997E+02   1.7666370748E+02   1.2500000000E+02  8.251E-08  -1.
3000002    2    3    0    0    0   1.6714573086E+01  -9.8942568062E+00  -2.0339751216E+01   2.9849267172E+01   1.0000000000E+01  7.372E-10   1.
3000002    2    3    0    0    0  -1.6714573086E+01   9.8942568062E+00   1.4517991119E+02   1.4681444031E+02   1.0000000000E+01  2.238E-10   1.
3000001    1    4    0    0    0   8.6200858778E+00  -9.3606209001E+00  -1.6527324844E+01   2.0882518303E+01   1.0000000000E+00     0.000   1.
3000022   2   4   0   0   0   8.0944872079E+00   -5.3363590608E-01   -3.8124263717E+00   8.9667488690E+00   2.5000000000E-01   9.011165E+00   0.
3000001    1    5    0    0    0  -4.5239545143E+00  -1.7745526113E+00   3.1330397390E+01   3.1720797626E+01   1.0000000000E+00     0.000  -1.
3000022   2   5   0   0   0   -1.2190618571E+01   1.1668809418E+01   1.1384951380E+02   1.1509364268E+02   2.5000000000E-01   2.772323E+00   0.
13    1    7    0    0    0   6.0363281370E+00  -4.1375804679E-01  -2.8161183017E+00   6.6745786675E+00   1.0500000000E-01     0.000   1.
-13    1    7    0    0    0   2.0581590709E+00  -1.1987785930E-01  -9.9630806999E-01   2.2921702014E+00   1.0500000000E-01     0.000  -1.
13    1    9    0    0    0  -7.8888713658E+00   7.4716075585E+00   7.3292759608E+01   7.4093851614E+01   1.0500000000E-01     0.000  -1.
-13    1    9    0    0    0  -4.3017472056E+00   4.1972018590E+00   4.0556754187E+01   4.0999791069E+01   1.0500000000E-01     0.000   1.
</event>
<event>
 13   1  9.2978750E-05  1.2500000E+02  7.5467720E-03  1.2380620E-01
   21   -1    0    0  502  501   0.0000000000E+00   0.0000000000E+00   2.1320604491E+01   2.1320604491E+01   0.0000000000E+00     0.000  -1.
   21   -1    0    0  501  502   0.0000000000E+00   0.0000000000E+00  -1.8321478651E+02   1.8321478651E+02   0.0000000000E+00     0.000  -1.
   25    2    1    2    0    0   0.0000000000E+00   0.0000000000E+00  -1.6189418202E+02   2.0453539100E+02   1.2500000000E+02  7.701E-09  -1.
3000002    2    3    0    0    0   4.1222428109E+01   3.3712236794E+01  -1.3192056744E+02   1.4261430364E+02   1.0000000000E+01  8.082E-10   1.
3000002    2    3    0    0    0  -4.1222428109E+01  -3.3712236794E+01  -2.9973614578E+01   6.1921087359E+01   1.0000000000E+01  6.015E-11   1.
3000001    1    4    0    0    0   3.3658672687E+01   2.6203625353E+01  -1.1448795255E+02   1.2218030736E+02   1.0000000000E+00     0.000   1.
3000022   2   4   0   0   0   7.5637554213E+00   7.5086114409E+00   -1.7432614893E+01   2.0433996277E+01   2.5000000000E-01   4.017549E-01   0.
3000001    1    5    0    0    0  -2.2236791278E+01  -2.1466785432E+01  -1.2482804931E+01   3.3348435976E+01   1.0000000000E+00     0.000  -1.
3000022   2   5   0   0   0   -1.8985636830E+01   -1.2245451362E+01   -1.7490809647E+01   2.8572651382E+01   2.5000000000E-01   3.151382E+01   0.
13    1    7    0    0    0   3.7547639173E+00   3.6667098943E+00  -8.6843325310E+00   1.0147495752E+01   1.0500000000E-01     0.000  -1.
-13    1    7    0    0    0   3.8089915039E+00   3.8419015465E+00  -8.7482823621E+00   1.0286500525E+01   1.0500000000E-01     0.000   1.
13    1    9    0    0    0  -1.3934975955E+01  -9.0093256437E+00  -1.2882932276E+01   2.1007914520E+01   1.0500000000E-01     0.000   1.
-13    1    9    0    0    0  -5.0506608753E+00  -3.2361257186E+00  -4.6078773704E+00   7.5647368628E+00   1.0500000000E-01     0.000  -1.
</event>
<event>
 13   1  9.2978750E-05  1.2500000E+02  7.5467720E-03  1.2380620E-01
   21   -1    0    0  502  501   0.0000000000E+00   0.0000000000E+00   5.5951998076E+01   5.5951998076E+01   0.0000000000E+00     0.000  -1.
   21   -1    0    0  501  502   0.0000000000E+00   0.0000000000E+00  -6.9814307519E+01   6.9814307519E+01   0.0000000000E+00     0.000  -1.
   25    2    1    2    0    0   0.0000000000E+00   0.0000000000E+00  -1.3862309444E+01   1.2576630560E+02   1.2500000000E+02  1.683E-08  -1.
3000002    2    3    0    0    0  -3.0609620676E+01  -4.6148345069E+01   2.0431734476E+01   5.9867139604E+01   1.0000000000E+01  4.758E-11  -1.
3000002    2    3    0    0    0   3.0609620676E+01   4.6148345069E+01  -3.4294043920E+01   6.5899165996E+01   1.0000000000E+01  6.837E-10  -1.
3000001    1    4    0    0    0  -3.0671148357E+01  -4.3493425426E+01   2.0849420075E+01   5.7167260860E+01   1.0000000000E+00     0.000  -1.
3000022   2   4   0   0   0   6.1527680264E-02   -2.6549196439E+00   -4.1768559865E-01   2.6998787437E+00   2.5000000000E-01   1.057283E+00   -1.
3000001    1    5    0    0    0   1.4658453069E+00   6.5843813253E-01   2.8667109163E-02   1.8928985819E+00   1.0000000000E+00     0.000  -1.
3000022   2   5   0   0   0   2.9143775370E+01   4.5489906937E+01   -3.4322711030E+01   6.4006267415E+01   2.5000000000E-01   2.009790E+00   0.
13    1    7    0    0    0  -1.2351141515E-02  -1.7372581357E+00  -2.5318775380E-01   1.7587914656E+00   1.0500000000E-01     0.000  -1.
-13    1    7    0    0    0   7.3878821779E-02  -9.1766150826E-01  -1.6449784485E-01   9.4108727811E-01   1.0500000000E-01     0.000  -1.
13    1    9    0    0    0   2.0116259246E+01   3.1426052580E+01  -2.3650789573E+01   4.4177274013E+01   1.0500000000E-01     0.000   1.
-13    1    9    0    0    0   9.0275161233E+00   1.4063854357E+01  -1.0671921457E+01   1.9828993401E+01   1.0500000000E-01     0.000  -1.
</event>
<event>
 13   1  9.2978750E-05  1.2500000E+02  7.5467720E-03  1.2380620E-01
   21   -1    0    0  502  501   0.0000000000E+00   0.0000000000E+00   1.1278774198E+02   1.1278774198E+02   0.0000000000E+00     0.000   1.
   21   -1    0    0  501  502   0.0000000000E+00   0.0000000000E+00  -3.4633639537E+01   3.4633639537E+01   0.0000000000E+00     0.000   1.
   25    2    1    2    0    0   0.0000000000E+00   0.0000000000E+00   7.8154102445E+01   1.4742138152E+02   1.2500000000E+02  6.932E-08  -1.
3000002    2    3    0    0    0   5.4726286110E+00  -2.7068560735E+01  -2.5987400943E+01   3.9217364164E+01   1.0000000000E+01  2.721E-09  -1.
3000002    2    3    0    0    0  -5.4726286110E+00   2.7068560735E+01   1.0414150339E+02   1.0820401736E+02   1.0000000000E+01  8.782E-10  -1.
3000001    1    4    0    0    0   1.0109877741E+00  -6.1172776654E-01  -4.7566401040E+00   5.0021927411E+00   1.0000000000E+00     0.000   1.
3000022   2   4   0   0   0   4.4616408369E+00   -2.6456832969E+01   -2.1230760839E+01   3.4215171423E+01   2.5000000000E-01   3.364343E-01   0.
3000001    1    5    0    0    0  -6.2778091795E+00   1.7377414111E+01   5.2783084793E+01   5.5932454349E+01   1.0000000000E+00     0.000   1.
3000022   2   5   0   0   0   8.0518056854E-01   9.6911466244E+00   5.1358418595E+01   5.2271563007E+01   2.5000000000E-01   1.561002E+01   0.
13    1    7    0    0    0   2.2224189238E+00  -1.3583941613E+01  -1.0900306479E+01   1.7558198140E+01   1.0500000000E-01     0.000  -1.
-13    1    7    0    0    0   2.2392219131E+00  -1.2872891356E+01  -1.0330454360E+01   1.6656973282E+01   1.0500000000E-01     0.000   1.
13    1    9    0    0    0   6.2694757597E-01   7.4476556108E+00   3.9434705110E+01   4.0136861231E+01   1.0500000000E-01     0.000   1.
-13    1    9    0    0    0   1.7823299257E-01   2.2434910136E+00   1.1923713485E+01   1.2134701777E+01   1.0500000000E-01     0.000  -1.
</event>
<event>
 13   1  9.2978750E-05  1.2500000E+02  7.5467720E-03  1.2380620E-01
   21   -1    0    0  502  501   0.0000000000E+00   0.0000000000E+00   4.7122393957E+02   4.7122393957E+02   0.0000000000E+00     0.000   1.
   21   -1    0    0  501  502   0.0000000000E+00   0.0000000000E+00  -8.2895830878E+00   8.2895830878E+00   0.0000000000E+00     0.000   1.
   25    2    1    2    0    0   0.0000000000E+00   0.0000000000E+00   4.6293435648E+02   4.7951352265E+02   1.2500000000E+02  1.145E-08  -1.
3000002    2    3    0    0    0   2.8580548863E+01   3.9889561888E+01   8.8024168279E+01   1.0127328928E+02   1.0000000000E+01  1.899E-10  -1.
3000002    2    3    0    0    0  -2.8580548863E+01  -3.9889561888E+01   3.7491018820E+02   3.7824023337E+02   1.0000000000E+01  2.267E-11  -1.
3000001    1    4    0    0    0   1.5213896396E+01   2.0243494163E+01   3.5440386740E+01   4.3569286335E+01   1.0000000000E+00     0.000   1.
3000022   2   4   0   0   0   1.3366652467E+01   1.9646067725E+01   5.2583781539E+01   5.7704002948E+01   2.5000000000E-01   1.422413E+01   0.
3000001    1    5    0    0    0  -1.1949014827E+01  -2.2783512350E+01   1.6850315939E+02   1.7045874021E+02   1.0000000000E+00     0.000   1.
3000022   2   5   0   0   0   -1.6631534036E+01   -1.7106049538E+01   2.0640702881E+02   2.0778149316E+02   2.5000000000E-01   1.161626E+01   0.
13    1    7    0    0    0   3.6654190332E+00   5.4436209933E+00   1.4471277875E+01   1.5890160935E+01   1.0500000000E-01     0.000  -1.
-13    1    7    0    0    0   9.7012334341E+00   1.4202446732E+01   3.8112503664E+01   4.1813842013E+01   1.0500000000E-01     0.000   1.
13    1    9    0    0    0  -4.3303976671E+00  -4.4909866000E+00   5.3808546076E+01   5.4169105221E+01   1.0500000000E-01     0.000   1.
-13    1    9    0    0    0  -1.2301136369E+01  -1.2615062938E+01   1.5259848274E+02   1.5361238794E+02   1.0500000000E-01     0.000  -1.
</event>
<event>
 13   1  9.2978750E-05  1.2500000E+02  7.5467720E-03  1.2380620E-01
   21   -1    0    0  502  501   0.0000000000E+00   0.0000000000E+00   3.5634324877E+01   3.5634324877E+01   0.0000000000E+00     0.000   1.
   21   -1    0    0  501  502   0.0000000000E+00   0.0000000000E+00  -1.0962042956E+02   1.0962042956E+02   0.0000000000E+00     0.000   1.
   25    2    1    2    0    0   0.0000000000E+00   0.0000000000E+00  -7.3986104680E+01   1.4525475443E+02   1.2500000000E+02  3.868E-08  -1.
3000002    2    3    0    0    0  -1.0044481048E+01  -2.5507700061E+00  -1.0766609986E+02   1.0862498371E+02   1.0000000000E+01  8.418E-10   1.
3000002    2    3    0    0    0   1.0044481048E+01   2.5507700061E+00   3.3679995183E+01   3.6629770716E+01   1.0000000000E+01  3.525E-10   1.
3000001    1    4    0    0    0  -1.0196477143E+01   1.4480458619E+00  -8.1285541511E+01   8.1941468389E+01   1.0000000000E+00     0.000   1.
3000022   2   4   0   0   0   1.5199609435E-01   -3.9988158680E+00   -2.6380558352E+01   2.6683515325E+01   2.5000000000E-01   2.327684E+00   0.
3000001    1    5    0    0    0   5.4505710153E+00  -3.4474644955E+00   1.9461158827E+01   2.0526335249E+01   1.0000000000E+00     0.000   1.
3000022   2   5   0   0   0   4.5939100329E+00   5.9982345016E+00   1.4218836356E+01   1.6103435467E+01   2.5000000000E-01   1.853071E+00   0.
13    1    7    0    0    0   4.8741713332E-03  -1.3114002756E+00  -8.8374571341E+00   8.9348457199E+00   1.0500000000E-01     0.000   1.
-13    1    7    0    0    0   1.4712192301E-01  -2.6874155923E+00  -1.7543101218E+01   1.7748669605E+01   1.0500000000E-01     0.000  -1.
13    1    9    0    0    0   2.5246691608E+00   3.4051341480E+00   7.9752970504E+00   9.0324570843E+00   1.0500000000E-01     0.000  -1.
-13    1    9    0    0    0   2.0692408721E+00   2.5931003536E+00   6.2435393053E+00   7.0709783826E+00   1.0500000000E-01     0.000   1.
</event>
<event>
 13   1  9.2978750E-05  1.2500000E+02  7.5467720E-03  1.2380620E-01
   21   -1    0    0  502  501   0.0000000000E+00   0.0000000000E+00   9.1322679140E+01   9.1322679140E+01   0.0000000000E+00     0.000   1.
   21   -1    0    0  501  502   0.0000000000E+00   0.0000000000E+00  -4.2774150263E+01   4.2774150263E+01   0.0000000000E+00     0.000   1.
   25    2    1    2    0    0   0.0000000000E+00   0.0000000000E+00   4.8548528877E+01   1.3409682940E+02   1.2500000000E+02  3.775E-08  -1.
3000002    2    3    0    0    0   1.3382907380E+00   1.2075950771E+01   8.9162768977E+01   9.0540703447E+01   1.0000000000E+01  5.752E-11  -1.
3000002    2    3    0    0    0  -1.3382907380E+00  -1.2075950771E+01  -4.0614240100E+01   4.3556125953E+01   1.0000000000E+01  1.633E-10  -1.
3000001    1    4    0    0    0   2.5736172586E+00  -7.1545343862E-01   1.8470845078E+01   1.8689769857E+01   1.0000000000E+00     0.000   1.
3000022   2   4   0   0   0   -1.2353265206E+00   1.2791404210E+01   7.0691923899E+01   7.1850933590E+01   2.5000000000E-01   3.876014E+00   0.
3000001    1    5    0    0    0  -2.1108460630E+00  -6.8264036175E+00  -9.1786697668E+00   1.1674906258E+01   1.0000000000E+00     0.000   1.
3000022   2   5   0   0   0   7.7255532502E-01   -5.2495471538E+00   -3.1435570333E+01   3.1881219694E+01   2.5000000000E-01   4.132411E+00   0.
13    1    7    0    0    0  -6.8437460303E-01   6.7357689464E+00   3.7569376419E+01   3.8174703947E+01   1.0500000000E-01     0.000   1.
-13    1    7    0    0    0  -5.5095191756E-01   6.0556352636E+00   3.3122547480E+01   3.3676229644E+01   1.0500000000E-01     0.000  -1.
13    1    9    0    0    0   5.8687609477E-01  -4.0408567025E+00  -2.4153373960E+01   2.4496314929E+01   1.0500000000E-01     0.000   1.
-13    1    9    0    0    0   1.8567923026E-01  -1.2086904513E+00  -7.2821963725E+00   7.3849047652E+00   1.0500000000E-01     0.000  -1.
</event>
<event>
 13   1  9.2978750E-05  1.2500000E+02  7.5467720E-03  1.2380620E-01
   21   -1    0    0  502  501   0.0000000000E+00   0.0000000000E+00   2.0955934726E+01   2.0955934726E+01   0.0000000000E+00     0.000  -1.
   21   -1    0    0  501  502   0.0000000000E+00   0.0000000000E+00  -1.8640304291E+02   1.8640304291E+02   0.0000000000E+00     0.000  -1.
   25    2    1    2    0    0   0.0000000000E+00   0.0000000000E+00  -1.6544710818E+02   2.0735897764E+02   1.2500000000E+02  3.193E-08  -1.
3000002    2    3    0    0    0   6.0106148321E+00   1.8632036081E+01  -1.7977775986E+02   1.8111687718E+02   1.0000000000E+01  8.258E-10  -1.
3000002    2    3    0    0    0  -6.0106148321E+00  -1.8632036081E+01   1.4330651677E+01   2.6242100463E+01   1.0000000000E+01  5.740E-11  -1.
3000001    1    4    0    0    0   1.3846427077E-01   1.3953114247E+01  -9.7778465341E+01   9.8774170986E+01   1.0000000000E+00     0.000  -1.
3000022   2   4   0   0   0   5.8721505613E+00   4.6789218343E+00   -8.1999294516E+01   8.2342706191E+01   2.5000000000E-01   2.315448E+00   0.
3000001    1    5    0    0    0   1.7174640871E-01  -5.0365830246E+00   9.0355381079E+00   1.0394114406E+01   1.0000000000E+00     0.000   1.
3000022   2   5   0   0   0   -6.1823612408E+00   -1.3595453057E+01   5.2951135694E+00   1.5847986056E+01   2.5000000000E-01   8.554009E-01   0.
13    1    7    0    0    0   2.0506302452E+00   1.5970622549E+00  -2.7873623984E+01   2.7994742922E+01   1.0500000000E-01     0.000  -1.
-13    1    7    0    0    0   3.8215203161E+00   3.0818595794E+00  -5.4125670532E+01   5.4347963269E+01   1.0500000000E-01     0.000   1.
13    1    9    0    0    0  -3.7108733838E+00  -8.2236305773E+00   3.2589322342E+00   9.5932447822E+00   1.0500000000E-01     0.000  -1.
-13    1    9    0    0    0  -2.4714878570E+00  -5.3718224793E+00   2.0361813352E+00   6.2547412741E+00   1.0500000000E-01     0.000   1.
</event>
<event>
 13   1  9.2978750E-05  1.2500000E+02  7.5467720E-03  1.2380620E-01
   21   -1    0    0  502  501   0.0000000000E+00   0.0000000000E+00   1.4109417183E+02   1.4109417183E+02   0.0000000000E+00     0.000  -1.
   21   -1    0    0  501  502   0.0000000000E+00   0.0000000000E+00  -2.7685410031E+01   2.7685410031E+01   0.0000000000E+00     0.000  -1.
   25    2    1    2    0    0   0.0000000000E+00   0.0000000000E+00   1.1340876179E+02   1.6877958186E+02   1.2500000000E+02  4.481E-08  -1.
3000002    2    3    0    0    0   4.0489672344E+01   2.7990363122E+01   1.0692476303E+02   1.1813457980E+02   1.0000000000E+01  5.570E-10  -1.
3000002    2    3    0    0    0  -4.0489672344E+01  -2.7990363122E+01   6.4839987590E+00   5.0645002065E+01   1.0000000000E+01  2.571E-10  -1.
3000001    1    4    0    0    0   1.8476010250E+01   1.8459648203E+01   5.9503453896E+01   6.4990634649E+01   1.0000000000E+00     0.000  -1.
3000022   2   4   0   0   0   2.2013662093E+01   9.5307149190E+00   4.7421309135E+01   5.3143945146E+01   2.5000000000E-01   2.831084E+00   0.
3000001    1    5    0    0    0  -1.9534376581E+01  -1.4178512013E+01   8.1367959706E+00   2.5491753960E+01   1.0000000000E+00     0.000   1.
3000022   2   5   0   0   0   -2.0955295763E+01   -1.3811851109E+01   -1.6527972116E+00   2.5153248104E+01   2.5000000000E-01   3.076846E+00   0.
13    1    7    0    0    0   7.1140704423E+00   3.1137903495E+00   1.5261150927E+01   1.7123651515E+01   1.0500000000E-01     0.000  -1.
-13    1    7    0    0    0   1.4899591651E+01   6.4169245695E+00   3.2160158208E+01   3.6020293631E+01   1.0500000000E-01     0.000   1.
13    1    9    0    0    0  -1.5057169577E+01  -9.8847736500E+00  -1.2095855982E+00   1.8052734644E+01   1.0500000000E-01     0.000  -1.
-13    1    9    0    0    0  -5.8981261855E+00  -3.9270774590E+00  -4.4321161335E-01   7.1005134606E+00   1.0500000000E-01     0.000   1.
</event>
<event>
 13   1  9.2978750E-05  1.2500000E+02  7.5467720E-03  1.2380620E-01
   21   -1    0    0  502  501   0.0000000000E+00   0.0000000000E+00   3.1000714604E+01   3.1000714604E+01   0.0000000000E+00     0.000   1.
   21   -1    0    0  501  502   0.0000000000E+00   0.0000000000E+00  -1.2600515988E+02   1.2600515988E+02   0.0000000000E+00     0.000   1.
   25    2    1    2    0    0   0.0000000000E+00   0.0000000000E+00  -9.5004445273E+01   1.5700587448E+02   1.2500000000E+02  3.171E-08  -1.
3000002    2    3    0    0    0  -1.6712349740E+01   5.7429170796E+01  -6.6502926246E+01   9.0000286064E+01   1.0000000000E+01  1.468E-10  -1.
3000002    2    3    0    0    0   1.6712349740E+01  -5.7429170796E+01  -2.8501519027E+01   6.7005588416E+01   1.0000000000E+01  1.063E-09  -1.
3000001    1    4    0    0    0  -7.4847731705E+00   3.9760011936E+01  -4.8198163562E+01   6.2936025846E+01   1.0000000000E+00     0.000  -1.
3000022   2   4   0   0   0   -9.2275765699E+00   1.7669158861E+01   -1.8304762685E+01   2.7064260218E+01   2.5000000000E-01   7.722957E+00   0.
3000001    1    5    0    0    0   1.4359585634E+01  -3.5607216373E+01  -2.1223380796E+01   4.3880558905E+01   1.0000000000E+00     0.000  -1.
3000022   2   5   0   0   0   2.3527641065E+00   -2.1821954423E+01   -7.2781382308E+00   2.3125029511E+01   2.5000000000E-01   4.176504E+00   0.
13    1    7    0    0    0  -2.7072004572E+00   5.2538211545E+00  -5.4699532917E+00   8.0537559593E+00   1.0500000000E-01     0.000   1.
-13    1    7    0    0    0  -6.5203761128E+00   1.2415337706E+01  -1.2834809393E+01   1.9010504259E+01   1.0500000000E-01     0.000  -1.
13    1    9    0    0    0   6.7826601302E-01  -6.3566487883E+00  -2.1650760686E+00   6.7502302172E+00   1.0500000000E-01     0.000  -1.
-13    1    9    0    0    0   1.6744980935E+00  -1.5465305635E+01  -5.1130621622E+00   1.6374799294E+01   1.0500000000E-01     0.000   1.
</event>
<event>
 13   1  9.2978750E-05  1.2500000E+02  7.5467720E-03  1.2380620E-01
   21   -1    0    0  502  501   0.0000000000E+00   0.0000000000E+00   1.6002106445E+02   1.6002106445E+02   0.0000000000E+00     0.000   1.
   21   -1    0    0  501  502   0.0000000000E+00   0.0000000000E+00  -2.4410848743E+01   2.4410848743E+01   0.0000000000E+00     0.000   1.
   25    2    1    2    0    0   0.0000000000E+00   0.0000000000E+00   1.3561021571E+02   1.8443191320E+02   1.2500000000E+02  4.666E-08  -1.
3000002    2    3    0    0    0   3.3252028705E+01   2.2480175922E+01   1.3693446836E+02   1.4304581206E+02   1.0000000000E+01  3.003E-10   1.
3000002    2    3    0    0    0  -3.3252028705E+01  -2.2480175922E+01  -1.3242526510E+00   4.1386101140E+01   1.0000000000E+01  9.989E-11   1.
3000001    1    4    0    0    0   6.1930196513E+00   8.6852312357E+00   4.3421650186E+01   4.4723891142E+01   1.0000000000E+00     0.000  -1.
3000022   2   4   0   0   0   2.7059009054E+01   1.3794944686E+01   9.3512818175E+01   9.8321920918E+01   2.5000000000E-01   4.585373E-01   0.
3000001    1    5    0    0    0  -2.8294460997E+01  -1.4370114428E+01  -2.2660995304E+00   3.1830989913E+01   1.0000000000E+00     0.000   1.
3000022   2   5   0   0   0   -4.9575677088E+00   -8.1100614936E+00   9.4184687940E-01   9.5551112271E+00   2.5000000000E-01   1.174577E+00   0.
13    1    7    0    0    0   1.7203739325E+01   8.7614425233E+00   5.9252149469E+01   6.2318213738E+01   1.0500000000E-01     0.000  -1.
-13    1    7    0    0    0   9.8552697291E+00   5.0335021631E+00   3.4260668707E+01   3.6003707180E+01   1.0500000000E-01     0.000   1.
13    1    9    0    0    0  -2.0623499699E+00  -3.4977366000E+00   3.9284481785E-01   4.0807843330E+00   1.0500000000E-01     0.000  -1.
-13    1    9    0    0    0  -2.8952177389E+00  -4.6123248936E+00   5.4900206154E-01   5.4743268941E+00   1.0500000000E-01     0.000   1.
</event>
<event>
 13   1  9.2978750E-05  1.2500000E+02  7.5467720E-03  1.2380620E-01
   21   -1    0    0  502  501   0.0000000000E+00   0.0000000000E+00   2.7587743826E+02   2.7587743826E+02   0.0000000000E+00     0.000   1.
   21   -1    0    0  501  502   0.0000000000E+00   0.0000000000E+00  -1.4159367379E+01   1.4159367379E+01   0.0000000000E+00     0.000   1.
   25    2    1    2    0    0   0.0000000000E+00   0.0000000000E+00   2.6171807088E+02   2.9003680564E+02   1.2500000000E+02  5.733E-08  -1.
3000002    2    3    0    0    0  -2.0304573506E+01   5.3083562288E+01   7.5166665701E+01   9.4763747937E+01   1.0000000000E+01  1.716E-10   1.
3000002    2    3    0    0    0   2.0304573506E+01  -5.3083562288E+01   1.8655140518E+02   1.9527305770E+02   1.0000000000E+01  2.845E-09   1.
3000001    1    4    0    0    0  -2.8817023648E-01   6.7321758035E+00   1.3004135812E+01   1.4680353584E+01   1.0000000000E+00     0.000  -1.
3000022   2   4   0   0   0   -2.0016403269E+01   4.6351386485E+01   6.2162529889E+01   8.0083394353E+01   2.5000000000E-01   2.047077E+00   0.
3000001    1    5    0    0    0  -1.0460880560E-01  -4.9789359478E+00   2.3890898341E+01   2.4424900608E+01   1.0000000000E+00     0.000   1.
3000022   2   5   0   0   0   2.0409182311E+01   -4.8104626340E+01   1.6266050684E+02   1.7084815709E+02   2.5000000000E-01   9.998042E-01   0.
13    1    7    0    0    0  -1.2691674794E+01   2.9240159735E+01   3.9242008002E+01   5.0557015017E+01   1.0500000000E-01     0.000  -1.
-13    1    7    0    0    0  -7.3247284747E+00   1.7111226750E+01   2.2920521887E+01   2.9526379335E+01   1.0500000000E-01     0.000   1.
13    1    9    0    0    0   8.1748722155E+00  -1.9398097543E+01   6.5649896101E+01   6.8942255599E+01   1.0500000000E-01     0.000   1.
-13    1    9    0    0    0   1.2234310096E+01  -2.8706528797E+01   9.7010610737E+01   1.0190590150E+02   1.0500000000E-01     0.000  -1.
</event>
<event>
 13   1  9.2978750E-05  1.2500000E+02  7.5467720E-03  1.2380620E-01
   21   -1    0    0  502  501   0.0000000000E+00   0.0000000000E+00   2.8839821722E+01   2.8839821722E+01   0.0000000000E+00     0.000  -1.
   21   -1    0    0  501  502   0.0000000000E+00   0.0000000000E+00  -1.3544639900E+02   1.3544639900E+02   0.0000000000E+00     0.000  -1.
   25    2    1    2    0    0   0.0000000000E+00   0.0000000000E+00  -1.0660657727E+02   1.6428622072E+02   1.2500000000E+02  1.224E-08  -1.
3000002    2    3    0    0    0   1.0365027788E+01  -5.0813162448E+01  -9.3808588278E+00   5.3641511829E+01   1.0000000000E+01  4.936E-10   1.
3000002    2    3    0    0    0  -1.0365027788E+01   5.0813162448E+01  -9.7225718442E+01   1.1064470889E+02   1.0000000000E+01  1.831E-10   1.
3000001    1    4    0    0    0   5.1009447616E+00  -1.2728697027E+01   1.0944551316E+00   1.3792650126E+01   1.0000000000E+00     0.000   1.
3000022   2   4   0   0   0   5.2640830260E+00   -3.8084465420E+01   -1.0475313959E+01   3.9848861703E+01   2.5000000000E-01   4.662840E+00   0.
3000001    1    5    0    0    0   1.4403407075E+00   9.6330289431E+00  -1.4701380603E+01   1.7663533611E+01   1.0000000000E+00     0.000  -1.
3000022   2   5   0   0   0   -1.1805368495E+01   4.1180133504E+01   -8.2524337839E+01   9.2981175280E+01   2.5000000000E-01   3.788219E-01   0.
13    1    7    0    0    0   3.0172470382E+00  -2.1871447396E+01  -6.0829377425E+00   2.2901466055E+01   1.0500000000E-01     0.000  -1.
-13    1    7    0    0    0   2.2468359878E+00  -1.6213018024E+01  -4.3923762169E+00   1.6947395648E+01   1.0500000000E-01     0.000   1.
13    1    9    0    0    0  -5.0384228663E+00   1.7340879707E+01  -3.4800784083E+01   3.9207109199E+01   1.0500000000E-01     0.000   1.
-13    1    9    0    0    0  -6.7669456289E+00   2.3839253797E+01  -4.7723553756E+01   5.3774066081E+01   1.0500000000E-01     0.000  -1.
</event>
<event>
 13   1  9.2978750E-05  1.2500000E+02  7.5467720E-03  1.2380620E-01
   21   -1    0    0  502  501   0.0000000000E+00   0.0000000000E+00   3.8785947670E+02   3.8785947670E+02   0.0000000000E+00     0.000   1.
   21   -1    0    0  501  502   0.0000000000E+00   0.0000000000E+00  -1.0071302198E+01   1.0071302198E+01   0.0000000000E+00     0.000   1.
   25    2    1    2    0    0   0.0000000000E+00   0.0000000000E+00   3.7778817450E+02   3.9793077890E+02   1.2500000000E+02  3.579E-09  -1.
3000002    2    3    0    0    0  -6.0024845506E+01   1.1658632382E+01   1.6276960675E+02   1.7416328738E+02   1.0000000000E+01  2.793E-10   1.
3000002    2    3    0    0    0   6.0024845506E+01  -1.1658632382E+01   2.1501856775E+02   2.2376749152E+02   1.0000000000E+01  2.183E-09   1.
3000001    1    4    0    0    0  -5.8223258674E+01   1.0163213054E+01   1.5095186488E+02   1.6211324517E+02   1.0000000000E+00     0.000   1.
3000022   2   4   0   0   0   -1.8015868322E+00   1.4954193283E+00   1.1817741875E+01   1.2050042204E+01   2.5000000000E-01   4.433679E+00   0.
3000001    1    5    0    0    0   5.0614888613E+01  -1.3172026987E+01   1.8651311451E+02   1.9370986327E+02   1.0000000000E+00     0.000   1.
3000022   2   5   0   0   0   9.4099568928E+00   1.5133946046E+00   2.8505453235E+01   3.0057628251E+01   2.5000000000E-01   2.278457E+01   0.
13    1    7    0    0    0  -7.9753999588E-01   6.4422496771E-01   4.8519080231E+00   4.9601544652E+00   1.0500000000E-01     0.000  -1.
-13    1    7    0    0    0  -1.0040468363E+00   8.5119436059E-01   6.9658338521E+00   7.0898877384E+00   1.0500000000E-01     0.000   1.
13    1    9    0    0    0   4.9355701850E+00   7.2970380787E-01   1.4845555197E+01   1.5661859877E+01   1.0500000000E-01     0.000  -1.
-13    1    9    0    0    0   4.4743867078E+00   7.8369079670E-01   1.3659898038E+01   1.4395768374E+01   1.0500000000E-01     0.000   1.
</event>
<event>
 13   1  9.2978750E-05  1.2500000E+02  7.5467720E-03  1.2380620E-01
   21   -1    0    0  502  501   0.0000000000E+00   0.0000000000E+00   8.6263114726E+01   8.6263114726E+01   0.0000000000E+00     0.000  -1.
   21   -1    0    0  501  502   0.0000000000E+00   0.0000000000E+00  -4.5282969580E+01   4.5282969580E+01   0.0000000000E+00     0.000  -1.
   25    2    1    2    0    0   0.0000000000E+00   0.0000000000E+00   4.0980145146E+01   1.3154608431E+02   1.2500000000E+02  8.183E-09  -1.
3000002    2    3    0    0    0   2.3376669896E+01   5.1992259161E+01  -4.3374945771E+00   5.8038586882E+01   1.0000000000E+01  4.180E-10   1.
3000002    2    3    0    0    0  -2.3376669896E+01  -5.1992259161E+01   4.5317639723E+01   7.3507497428E+01   1.0000000000E+01  1.122E-10   1.
3000001    1    4    0    0    0   1.3330957059E+01   2.1448369795E+01   1.6668097865E+00   2.5328348502E+01   1.0000000000E+00     0.000   1.
3000022   2   4   0   0   0   1.0045712837E+01   3.0543889366E+01   -6.0043043636E+00   3.2710238380E+01   2.5000000000E-01   1.404509E+01   0.
3000001    1    5    0    0    0  -1.3421674862E+01  -1.8172097783E+01   1.7147421720E+01   2.8379580081E+01   1.0000000000E+00     0.000  -1.
3000022   2   5   0   0   0   -9.9549950345E+00   -3.3820161378E+01   2.8170218003E+01   4.5127917347E+01   2.5000000000E-01   3.605630E-01   0.
13    1    7    0    0    0   4.3770825095E+00   1.3100646091E+01  -2.5880755567E+00   1.4053289273E+01   1.0500000000E-01     0.000   1.
-13    1    7    0    0    0   5.6686303272E+00   1.7443243275E+01  -3.4162288069E+00   1.8656949107E+01   1.0500000000E-01     0.000  -1.
13    1    9    0    0    0  -7.2780481564E+00  -2.4594948854E+01   2.0494078279E+01   3.2831383820E+01   1.0500000000E-01     0.000  -1.
-13    1    9    0    0    0  -2.6769468781E+00  -9.2252125240E+00   7.6761397244E+00   1.2296533527E+01   1.0500000000E-01     0.000   1.
</event>
<event>
 13   1  9.2978750E-05  1.2500000E+02  7.5467720E-03  1.2380620E-01
   21   -1    0    0  502  501   0.0000000000E+00   0.0000000000E+00   4.6532831767E+01   4.6532831767E+01   0.0000000000E+00     0.000   1.
   21   -1    0    0  501  502   0.0000000000E+00   0.0000000000E+00  -8.3946105398E+01   8.3946105398E+01   0.0000000000E+00     0.000   1.
   25    2    1    2    0    0   0.0000000000E+00   0.0000000000E+00  -3.7413273631E+01   1.3047893717E+02   1.2500000000E+02  6.318E-08  -1.
3000002    2    3    0    0    0   4.8893273532E+01   8.0134203949E+00  -5.7080513403E+01   7.6242718429E+01   1.0000000000E+01  1.956E-10   1.
3000002    2    3    0    0    0  -4.8893273532E+01  -8.0134203949E+00   1.9667239772E+01   5.4236218741E+01   1.0000000000E+01  4.090E-10   1.
3000001    1    4    0    0    0   1.3071976999E+01  -1.9181067365E+00  -1.7391541974E+01   2.1863701616E+01   1.0000000000E+00     0.000   1.
3000022   2   4   0   0   0   3.5821296534E+01   9.9315271313E+00   -3.9688971428E+01   5.4379016813E+01   2.5000000000E-01   5.362187E+00   0.
3000001    1    5    0    0    0  -1.7057020113E+01  -2.5323898242E+00   1.2002956766E+01   2.1033922708E+01   1.0000000000E+00     0.000  -1.
3000022   2   5   0   0   0   -3.1836253419E+01   -5.4810305706E+00   7.6642830052E+00   3.3202296033E+01   2.5000000000E-01   1.327102E+01   0.
13    1    7    0    0    0   9.7017798870E+00   2.7059250631E+00  -1.0706199350E+01   1.4699669824E+01   1.0500000000E-01     0.000  -1.
-13    1    7    0    0    0   2.6119516647E+01   7.2256020683E+00  -2.8982772078E+01   3.9679346989E+01   1.0500000000E-01     0.000   1.
13    1    9    0    0    0  -2.3817107159E+01  -4.0738101244E+00   5.7240310025E+00   2.4831956795E+01   1.0500000000E-01     0.000   1.
-13    1    9    0    0    0  -8.0191462600E+00  -1.4072204462E+00   1.9402520027E+00   8.3703392378E+00   1.0500000000E-01     0.000  -1.
</event>
<event>
 13   1  9.2978750E-05  1.2500000E+02  7.5467720E-03  1.2380620E-01
   21   -1    0    0  502  501   0.0000000000E+00   0.0000000000E+00   5.9040581164E+01   5.9040581164E+01   0.0000000000E+00     0.000  -1.
   21   -1    0    0  501  502   0.0000000000E+00   0.0000000000E+00  -6.6162119732E+01   6.6162119732E+01   0.0000000000E+00     0.000  -1.
   25    2    1    2    0    0   0.0000000000E+00   0.0000000000E+00  -7.1215385686E+00   1.2520270090E+02   1.2500000000E+02  4.113E-09  -1.
3000002    2    3    0    0    0   4.9373556077E+01  -3.3985868034E+01  -1.8194825499E+01   6.3433736613E+01   1.0000000000E+01  1.251E-10  -1.
3000002    2    3    0    0    0  -4.9373556077E+01   3.3985868034E+01   1.1073286931E+01   6.1768964287E+01   1.0000000000E+01  4.815E-10  -1.
3000001    1    4    0    0    0   4.2660562784E+01  -3.2468846292E+01  -1.4186452502E+01   5.5465349824E+01   1.0000000000E+00     0.000  -1.
3000022   2   4   0   0   0   6.7129932934E+00   -1.5170217417E+00   -4.0083729973E+00   7.9683867883E+00   2.5000000000E-01   2.424828E+00   0.
3000001    1    5    0    0    0  -4.3890257690E+01   2.9472494769E+01   1.2907734239E+01   5.4429700268E+01   1.0000000000E+00     0.000  -1.
3000022   2   5   0   0   0   -5.4832983866E+00   4.5133732642E+00   -1.8344473087E+00   7.3392640194E+00   2.5000000000E-01   1.314954E-01   0.
13    1    7    0    0    0   3.3337668406E+00  -6.8821043654E-01  -2.0096122566E+00   3.9543901394E+00   1.0500000000E-01     0.000   1.
-13    1    7    0    0    0   3.3792264528E+00  -8.2881130514E-01  -1.9987607408E+00   4.0139966489E+00   1.0500000000E-01     0.000  -1.
13    1    9    0    0    0  -2.6904959828E+00   2.2155117737E+00  -8.3028181581E-01   3.5843624184E+00   1.0500000000E-01     0.000   1.
-13    1    9    0    0    0  -2.7928024038E+00   2.2978614905E+00  -1.0041654929E+00   3.7549016010E+00   1.0500000000E-01     0.000  -1.
</event>
<event>
 13   1  9.2978750E-05  1.2500000E+02  7.5467720E-03  1.2380620E-01
   21   -1    0    0  502  501   0.0000000000E+00   0.0000000000E+00   4.7526321667E+01   4.7526321667E+01   0.0000000000E+00     0.000   1.
   21   -1    0    0  501  502   0.0000000000E+00   0.0000000000E+00  -8.2191296591E+01   8.2191296591E+01   0.0000000000E+00     0.000   1.
   25    2    1    2    0    0   0.0000000000E+00   0.0000000000E+00  -3.4664974924E+01   1.2971761826E+02   1.2500000000E+02  5.797E-09  -1.
3000002    2    3    0    0    0  -1.1859243731E+01   2.7998009024E+01  -7.3040136447E+01   7.9745794268E+01   1.0000000000E+01  1.020E-09  -1.
3000002    2    3    0    0    0   1.1859243731E+01  -2.7998009024E+01   3.8375161523E+01   4.9971823992E+01   1.0000000000E+01  1.226E-09  -1.
3000001    1    4    0    0    0  -1.0505413502E+00   1.4106302595E+01  -3.7329600146E+01   3.9932323462E+01   1.0000000000E+00     0.000   1.
3000022   2   4   0   0   0   -1.0808702381E+01   1.3891706429E+01   -3.5710536301E+01   3.9813470806E+01   2.5000000000E-01   4.290146E+00   0.
3000001    1    5    0    0    0   6.7392547608E+00  -2.4643647287E+01   3.3501880539E+01   4.2143835919E+01   1.0000000000E+00     0.000   1.
3000022   2   5   0   0   0   5.1199889704E+00   -3.3543617369E+00   4.8732809839E+00   7.8279880728E+00   2.5000000000E-01   8.046561E+00   0.
13    1    7    0    0    0  -6.2857613703E+00   8.1808368804E+00  -2.0898289237E+01   2.3306359778E+01   1.0500000000E-01     0.000  -1.
-13    1    7    0    0    0  -4.5229410108E+00   5.7108695487E+00  -1.4812247064E+01   1.6507111027E+01   1.0500000000E-01     0.000   1.
13    1    9    0    0    0   2.6577852856E+00  -1.6735861562E+00   2.4525179023E+00   3.9862993249E+00   1.0500000000E-01     0.000  -1.
-13    1    9    0    0    0   2.4622036848E+00  -1.6807755806E+00   2.4207630816E+00   3.8416887478E+00   1.0500000000E-01     0.000   1.
</event>
<event>
 13   1  9.2978750E-05  1.2500000E+02  7.5467720E-03  1.2380620E-01
   21   -1    0    0  502  501   0.0000000000E+00   0.0000000000E+00   4.1606862098E+01   4.1606862098E+01   0.0000000000E+00     0.000  -1.
   21   -1    0    0  501  502   0.0000000000E+00   0.0000000000E+00  -9.3884753692E+01   9.3884753692E+01   0.0000000000E+00     0.000  -1.
   25    2    1    2    0    0   0.0000000000E+00   0.0000000000E+00  -5.2277891594E+01   1.3549161579E+02   1.2500000000E+02  4.885E-09  -1.
3000002    2    3    0    0    0   4.4082705715E+01  -3.5602093839E+01   3.1114920484E-01   5.7540341002E+01   1.0000000000E+01  4.283E-11   1.
3000002    2    3    0    0    0  -4.4082705715E+01   3.5602093839E+01  -5.2589040799E+01   7.7951274788E+01   1.0000000000E+01  1.669E-11   1.
3000001    1    4    0    0    0   7.0858891822E+00  -4.0448590637E+00   3.2130834561E+00   8.8257926354E+00   1.0000000000E+00     0.000  -1.
3000022   2   4   0   0   0   3.6996816533E+01   -3.1557234775E+01   -2.9019342513E+00   4.8714548367E+01   2.5000000000E-01   6.676680E+00   0.
3000001    1    5    0    0    0  -4.0156912064E+00   1.7410526519E+00  -1.5227558408E+00   4.7408675949E+00   1.0000000000E+00     0.000  -1.
3000022   2   5   0   0   0   -4.0067014508E+01   3.3861041187E+01   -5.1066284958E+01   7.3210407193E+01   2.5000000000E-01   7.444707E+00   0.
13    1    7    0    0    0   1.8326797576E+01  -1.5604631259E+01  -1.5010291831E+00   2.4117216666E+01   1.0500000000E-01     0.000  -1.
-13    1    7    0    0    0   1.8670018957E+01  -1.5952603516E+01  -1.4009050682E+00   2.4597331701E+01   1.0500000000E-01     0.000   1.
13    1    9    0    0    0  -1.2141629778E+01   1.0205967161E+01  -1.5468004277E+01   2.2155160136E+01   1.0500000000E-01     0.000   1.
-13    1    9    0    0    0  -2.7925384731E+01   2.3655074026E+01  -3.5598280681E+01   5.1055247057E+01   1.0500000000E-01     0.000  -1.
</event>
<event>
 13   1  9.2978750E-05  1.2500000E+02  7.5467720E-03  1.2380620E-01
   21   -1    0    0  502  501   0.0000000000E+00   0.0000000000E+00   9.0643594958E+00   9.0643594958E+00   0.0000000000E+00     0.000   1.
   21   -1    0    0  501  502   0.0000000000E+00   0.0000000000E+00  -4.3094605877E+02   4.3094605877E+02   0.0000000000E+00     0.000   1.
   25    2    1    2    0    0   0.0000000000E+00   0.0000000000E+00  -4.2188169928E+02   4.4001041827E+02   1.2500000000E+02  1.402E-08  -1.
3000002    2    3    0    0    0   2.5685355575E+01   3.7753722298E+01  -3.5697845377E+02   3.6002596781E+02   1.0000000000E+01  1.290E-09   1.
3000002    2    3    0    0    0  -2.5685355575E+01  -3.7753722298E+01  -6.4903245511E+01   7.9984450465E+01   1.0000000000E+01  7.086E-11   1.
3000001    1    4    0    0    0   1.0879429957E+01   2.2983513278E+01  -2.1850887087E+02   2.1998575074E+02   1.0000000000E+00     0.000  -1.
3000022   2   4   0   0   0   1.4805925618E+01   1.4770209020E+01   -1.3846958290E+02   1.4004021706E+02   2.5000000000E-01   1.293022E+01   0.
3000001    1    5    0    0    0  -5.6767291982E+00  -1.6686109508E+01  -2.3037261634E+01   2.9023558164E+01   1.0000000000E+00     0.000   1.
3000022   2   5   0   0   0   -2.0008626377E+01   -2.1067612790E+01   -4.1865983877E+01   5.0960892301E+01   2.5000000000E-01   7.037269E+00   0.
13    1    7    0    0    0   1.1040105868E+01   1.0972592034E+01  -1.0301571940E+02   1.0418508138E+02   1.0500000000E-01     0.000   1.
-13    1    7    0    0    0   3.7658197508E+00   3.7976169866E+00  -3.5453863496E+01   3.5855135684E+01   1.0500000000E-01     0.000  -1.
13    1    9    0    0    0  -5.8573725730E+00  -6.2183642805E+00  -1.2356773290E+01   1.5022574311E+01   1.0500000000E-01     0.000  -1.
-13    1    9    0    0    0  -1.4151253804E+01  -1.4849248509E+01  -2.9509210586E+01   3.5938317990E+01   1.0500000000E-01     0.000   1.
</event>
<event>
 13   1  9.2978750E-05  1.2500000E+02  7.5467720E-03  1.2380620E-01
   21   -1    0    0  502  501   0.0000000000E+00   0.0000000000E+00   9.5212421134E+01   9.5212421134E+01   0.0000000000E+00     0.000  -1.
   21   -1    0    0  501  502   0.0000000000E+00   0.0000000000E+00  -4.1026684896E+01   4.1026684896E+01   0.0000000000E+00     0.000  -1.
   25    2    1    2    0    0   0.0000000000E+00   0.0000000000E+00   5.4185736238E+01   1.3623910603E+02   1.2500000000E+02  1.242E-08  -1.
3000002    2    3    0    0    0   5.4685343988E+01   5.4927408554E+00   5.7641415309E+01   8.0269482420E+01   1.0000000000E+01  4.381E-10   1.
3000002    2    3    0    0    0  -5.4685343988E+01  -5.4927408554E+00  -3.4556790708E+00   5.5969623610E+01   1.0000000000E+01  2.757E-10   1.
3000001    1    4    0    0    0   3.6570954212E+01   6.1880562127E+00   3.2850636047E+01   4.9556947246E+01   1.0000000000E+00     0.000   1.
3000022   2   4   0   0   0   1.8114389776E+01   -6.9531535734E-01   2.4790779262E+01   3.0712535174E+01   2.5000000000E-01   1.603810E+00   0.
3000001    1    5    0    0    0  -5.0362702592E+01  -5.6128633425E+00  -5.8492051609E+00   5.1020772714E+01   1.0000000000E+00     0.000   1.
3000022   2   5   0   0   0   -4.3226413959E+00   1.2012248719E-01   2.3935260900E+00   4.9488508963E+00   2.5000000000E-01   2.583380E+00   0.
13    1    7    0    0    0   8.0763339898E+00  -3.5276416755E-01   1.0969264865E+01   1.3626716771E+01   1.0500000000E-01     0.000  -1.
-13    1    7    0    0    0   1.0038055786E+01  -3.4255118979E-01   1.3821514397E+01   1.7085818403E+01   1.0500000000E-01     0.000   1.
13    1    9    0    0    0  -2.7602855457E+00   6.1801660692E-02   1.5915531890E+00   3.1885831168E+00   1.0500000000E-01     0.000   1.
-13    1    9    0    0    0  -1.5623558503E+00   5.8320826495E-02   8.0197290102E-01   1.7602677795E+00   1.0500000000E-01     0.000  -1.
</event>
<event>
 13   1  9.2978750E-05  1.2500000E+02  7.5467720E-03  1.2380620E-01
   21   -1    0    0  502  501   0.0000000000E+00   0.0000000000E+00   1.6252393418E+02   1.6252393418E+02   0.0000000000E+00     0.000   1.
   21   -1    0    0  501  502   0.0000000000E+00   0.0000000000E+00  -2.4034921501E+01   2.4034921501E+01   0.0000000000E+00     0.000   1.
   25    2    1    2    0    0   0.0000000000E+00   0.0000000000E+00   1.3848901268E+02   1.8655885568E+02   1.2500000000E+02  2.786E-08  -1.
3000002    2    3    0    0    0  -2.1607046830E+01   3.5643496444E+01   1.3587896811E+00   4.2885540930E+01   1.0000000000E+01  2.357E-11   1.
3000002    2    3    0    0    0   2.1607046830E+01  -3.5643496444E+01   1.3713022300E+02   1.4367331475E+02   1.0000000000E+01  1.019E-11   1.
3000001    1    4    0    0    0  -2.8853978044E+00   5.2934971813E+00  -3.2610575302E+00   6.9268412075E+00   1.0000000000E+00     0.000  -1.
3000022   2   4   0   0   0   -1.8721649025E+01   3.0349999263E+01   4.6198472113E+00   3.5958699723E+01   2.5000000000E-01   1.540112E+00   0.
3000001    1    5    0    0    0   3.5397172995E+00  -9.9197345717E+00   4.8290629144E+01   4.9435974712E+01   1.0000000000E+00     0.000  -1.
3000022   2   5   0   0   0   1.8067329530E+01   -2.5723761873E+01   8.8839593854E+01   9.4237340038E+01   2.5000000000E-01   5.117991E-01   0.
13    1    7    0    0    0  -1.0929832516E+01   1.7833601082E+01   2.6876029349E+00   2.1088688933E+01   1.0500000000E-01     0.000   1.
-13    1    7    0    0    0  -7.7918165095E+00   1.2516398181E+01   1.9322442765E+00   1.4870010790E+01   1.0500000000E-01     0.000  -1.
13    1    9    0    0    0   7.7264852546E+00  -1.0949661037E+01   3.8049215850E+01   4.0340395425E+01   1.0500000000E-01     0.000   1.
-13    1    9    0    0    0   1.0340844276E+01  -1.4774100836E+01   5.0790378005E+01   5.3896944614E+01   1.0500000000E-01     0.000  -1.
</event>
<event>
 13   1  9.2978750E-05  1.2500000E+02  7.5467720E-03  1.2380620E-01
   21   -1    0    0  502  501   0.0000000000E+00   0.0000000000E+00   5.6633239019E+01   5.6633239019E+01   0.0000000000E+00     0.000  -1.
   21   -1    0    0  501  502   0.0000000000E+00   0.0000000000E+00  -6.8974511571E+01   6.8974511571E+01   0.0000000000E+00     0.000  -1.
   25    2    1    2    0    0   0.0000000000E+00   0.0000000000E+00  -1.2341272553E+01   1.2560775059E+02   1.2500000000E+02  1.442E-08  -1.
3000002    2    3    0    0    0  -8.5840127420E+00  -6.1080311376E+01  -7.5038452495E+00   6.2934866378E+01   1.0000000000E+01  4.232E-10   1.
3000002    2    3    0    0    0   8.5840127420E+00   6.1080311376E+01  -4.8374273035E+00   6.2672884212E+01   1.0000000000E+01  1.949E-09   1.
3000001    1    4    0    0    0  -9.4942151676E+00  -3.5190413640E+01  -2.4920178730E+00   3.6547441591E+01   1.0000000000E+00     0.000  -1.
3000022   2   4   0   0   0   9.1020242559E-01   -2.5889897736E+01   -5.0118273764E+00   2.6387424787E+01   2.5000000000E-01   3.696820E+00   0.
3000001    1    5    0    0    0   2.1215780291E+00   1.1250001728E+01  -4.7228146219E+00   1.2424516496E+01   1.0000000000E+00     0.000   1.
3000022   2   5   0   0   0   6.4624347129E+00   4.9830309648E+01   -1.1461268159E-01   5.0248367716E+01   2.5000000000E-01   4.544851E+00   0.
13    1    7    0    0    0   5.9107635718E-01  -1.7444004161E+01  -3.3286143518E+00   1.7768887161E+01   1.0500000000E-01     0.000   1.
-13    1    7    0    0    0   3.1912606841E-01  -8.4458935750E+00  -1.6832130246E+00   8.6185376262E+00   1.0500000000E-01     0.000  -1.
13    1    9    0    0    0   2.2024764183E+00   1.7132235107E+01  -9.1408700043E-02   1.7273788314E+01   1.0500000000E-01     0.000   1.
-13    1    9    0    0    0   4.2599582947E+00   3.2698074540E+01  -2.3203981552E-02   3.2974579402E+01   1.0500000000E-01     0.000  -1.
</event>
<event>
 13   1  9.2978750E-05  1.2500000E+02  7.5467720E-03  1.2380620E-01
   21   -1    0    0  502  501   0.0000000000E+00   0.0000000000E+00   1.3153821210E+01   1.3153821210E+01   0.0000000000E+00     0.000  -1.
   21   -1    0    0  501  502   0.0000000000E+00   0.0000000000E+00  -2.9696693741E+02   2.9696693741E+02   0.0000000000E+00     0.000  -1.
   25    2    1    2    0    0   0.0000000000E+00   0.0000000000E+00  -2.8381311620E+02   3.1012075862E+02   1.2500000000E+02  3.070E-08  -1.
3000002    2    3    0    0    0   2.9834978519E+01  -1.1940152097E+01  -1.1247549453E+01   3.5485215852E+01   1.0000000000E+01  1.454E-10   1.
3000002    2    3    0    0    0  -2.9834978519E+01   1.1940152097E+01  -2.7256556675E+02   2.7463554277E+02   1.0000000000E+01  7.328E-11   1.
3000001    1    4    0    0    0   9.9069734932E+00  -9.1317669555E+00  -3.9437420804E+00   1.4074458893E+01   1.0000000000E+00     0.000   1.
3000022   2   4   0   0   0   1.9928005026E+01   -2.8083851414E+00   -7.3038073723E+00   2.1410756959E+01   2.5000000000E-01   2.247126E+01   0.
3000001    1    5    0    0    0  -1.0856974173E+01   8.3384281984E+00  -8.8361242461E+01   8.9420984351E+01   1.0000000000E+00     0.000  -1.
3000022   2   5   0   0   0   -1.8978004347E+01   3.6017238985E+00   -1.8420432429E+02   1.8521455842E+02   2.5000000000E-01   2.597984E-01   0.
13    1    7    0    0    0   8.3779084673E+00  -1.2451045115E+00  -3.0614589863E+00   9.0068413807E+00   1.0500000000E-01     0.000   1.
-13    1    7    0    0    0   1.1550096559E+01  -1.5632806299E+00  -4.2423483860E+00   1.2403915578E+01   1.0500000000E-01     0.000  -1.
13    1    9    0    0    0  -1.1425938120E+01   2.1831316463E+00  -1.1151167365E+02   1.1211682528E+02   1.0500000000E-01     0.000  -1.
-13    1    9    0    0    0  -7.5520662264E+00   1.4185922522E+00  -7.2692650640E+01   7.3097733141E+01   1.0500000000E-01     0.000   1.
</event>
<event>
 13   1  9.2978750E-05  1.2500000E+02  7.5467720E-03  1.2380620E-01
   21   -1    0    0  502  501   0.0000000000E+00   0.0000000000E+00   8.1726330580E+01   8.1726330580E+01   0.0000000000E+00     0.000  -1.
   21   -1    0    0  501  502   0.0000000000E+00   0.0000000000E+00  -4.7796713400E+01   4.7796713400E+01   0.0000000000E+00     0.000  -1.
   25    2    1    2    0    0   0.0000000000E+00   0.0000000000E+00   3.3929617179E+01   1.2952304398E+02   1.2500000000E+02  5.431E-08  -1.
3000002    2    3    0    0    0  -1.6770537356E+01   3.2282083928E+01  -3.4666565326E+01   5.1236262719E+01   1.0000000000E+01  1.427E-09   1.
3000002    2    3    0    0    0   1.6770537356E+01  -3.2282083928E+01   6.8596182505E+01   7.8286781261E+01   1.0000000000E+01  1.237E-12   1.
3000001    1    4    0    0    0  -1.0090620220E+00   8.6742080457E+00  -1.2189040209E+01   1.5027734114E+01   1.0000000000E+00     0.000   1.
3000022   2   4   0   0   0   -1.5761475334E+01   2.3607875882E+01   -2.2477525117E+01   3.6208528605E+01   2.5000000000E-01   2.468012E+00   0.
3000001    1    5    0    0    0   7.0273678323E+00  -5.7527330605E+00   2.1501834949E+01   2.3362507196E+01   1.0000000000E+00     0.000  -1.
3000022   2   5   0   0   0   9.7431695234E+00   -2.6529350868E+01   4.7094347556E+01   5.4924274064E+01   2.5000000000E-01   4.776223E+00   0.
13    1    7    0    0    0  -1.1160672066E+01   1.6792174953E+01  -1.5976993578E+01   2.5725728161E+01   1.0500000000E-01     0.000   1.
-13    1    7    0    0    0  -4.6008032674E+00   6.8157009292E+00  -6.5005315382E+00   1.0482800444E+01   1.0500000000E-01     0.000  -1.
13    1    9    0    0    0   2.8878133050E+00  -7.9387383493E+00   1.4150010501E+01   1.6480195826E+01   1.0500000000E-01     0.000   1.
-13    1    9    0    0    0   6.8553562184E+00  -1.8590612518E+01   3.2944337054E+01   3.8444078239E+01   1.0500000000E-01     0.000  -1.
</event>
<event>
 13   1  9.2978750E-05  1.2500000E+02  7.5467720E-03  1.2380620E-01
   21   -1    0    0  502  501   0.0000000000E+00   0.0000000000E+00   7.8281943240E+01   7.8281943240E+01   0.0000000000E+00     0.000  -1.
   21   -1    0    0  501  502   0.0000000000E+00   0.0000000000E+00  -4.9899757701E+01   4.9899757701E+01   0.0000000000E+00     0.000  -1.
   25    2    1    2    0    0   0.0000000000E+00   0.0000000000E+00   2.8382185539E+01   1.2818170094E+02   1.2500000000E+02  6.152E-08  -1.
3000002    2    3    0    0    0  -2.2157091182E+01   4.3749787885E+01   5.2577443919E+01   7.2590414234E+01   1.0000000000E+01  5.325E-11  -1.
3000002    2    3    0    0    0   2.2157091182E+01  -4.3749787885E+01  -2.4195258380E+01   5.5591286706E+01   1.0000000000E+01  3.816E-10  -1.
3000001    1    4    0    0    0  -5.2206072862E-01   9.2646165876E+00   1.0247460724E+01   1.3860595918E+01   1.0000000000E+00     0.000   1.
3000022   2   4   0   0   0   -2.1635030453E+01   3.4485171297E+01   4.2329983195E+01   5.8729818316E+01   2.5000000000E-01   2.056325E+00   0.
3000001    1    5    0    0    0   2.5003652202E-01   6.1014748461E-02  -8.0808934953E-01   1.3112015325E+00   1.0000000000E+00     0.000  -1.
3000022   2   5   0   0   0   2.1907054660E+01   -4.3810802633E+01   -2.3387169030E+01   5.4280085174E+01   2.5000000000E-01   2.136009E+01   0.
13    1    7    0    0    0  -8.8675826275E+00   1.4038353922E+01   1.7320433864E+01   2.3994121295E+01   1.0500000000E-01     0.000   1.
-13    1    7    0    0    0  -1.2767447826E+01   2.0446817375E+01   2.5009549331E+01   3.4735697020E+01   1.0500000000E-01     0.000  -1.
13    1    9    0    0    0   8.8378352207E+00  -1.7550949741E+01  -9.3482645135E+00   2.1761071725E+01   1.0500000000E-01     0.000   1.
-13    1    9    0    0    0   1.3069219439E+01  -2.6259852892E+01  -1.4038904517E+01   3.2519013449E+01   1.0500000000E-01     0.000  -1.
</event>
<event>
 13   1  9.2978750E-05  1.2500000E+02  7.5467720E-03  1.2380620E-01
   21   -1    0    0  502  501   0.0000000000E+00   0.0000000000E+00   7.7880936655E+01   7.7880936655E+01   0.0000000000E+00     0.000  -1.
   21   -1    0    0  501  502   0.0000000000E+00   0.0000000000E+00  -5.0156690042E+01   5.0156690042E+01   0.0000000000E+00     0.000  -1.
   25    2    1    2    0    0   0.0000000000E+00   0.0000000000E+00   2.7724246613E+01   1.2803762670E+02   1.2500000000E+02  1.782E-07  -1.
3000002    2    3    0    0    0  -1.3882148704E+00   6.1124734146E+01   5.4099493798E+00   6.2188647012E+01   1.0000000000E+01  8.212E-10  -1.
3000002    2    3    0    0    0   1.3882148704E+00  -6.1124734146E+01   2.2314297233E+01   6.5848979688E+01   1.0000000000E+01  7.860E-10  -1.
3000001    1    4    0    0    0  -4.2264319702E+00   4.4977753814E+01   6.9570895467E+00   4.5719384951E+01   1.0000000000E+00     0.000  -1.
3000022   2   4   0   0   0   2.8382170998E+00   1.6146980332E+01   -1.5471401668E+00   1.6469262061E+01   2.5000000000E-01   8.748650E+00   0.
3000001    1    5    0    0    0   1.8077925831E-01  -4.7811428415E+01   2.1559556478E+01   5.2457409808E+01   1.0000000000E+00     0.000  -1.
3000022   2   5   0   0   0   1.2074356121E+00   -1.3313305731E+01   7.5474075480E-01   1.3391569880E+01   2.5000000000E-01   5.631843E+00   0.
13    1    7    0    0    0   9.4342674796E-01   5.5811515920E+00  -4.9239508054E-01   5.6826741097E+00   1.0500000000E-01     0.000   1.
-13    1    7    0    0    0   1.8947903518E+00   1.0565828740E+01  -1.0547450863E+00   1.0786587952E+01   1.0500000000E-01     0.000  -1.
13    1    9    0    0    0   4.3774586957E-01  -4.2665666967E+00   2.4810923014E-01   4.2974173655E+00   1.0500000000E-01     0.000  -1.
-13    1    9    0    0    0   7.6968974252E-01  -9.0467390342E+00   5.0663152466E-01   9.0941525144E+00   1.0500000000E-01     0.000   1.
</event>
<event>
 13   1  9.2978750E-05  1.2500000E+02  7.5467720E-03  1.2380620E-01
   21   -1    0    0  502  501   0.0000000000E+00   0.0000000000E+00   1.6855739706E+02   1.6855739706E+02   0.0000000000E+00     0.000   1.
   21   -1    0    0  501  502   0.0000000000E+00   0.0000000000E+00  -2.3174598494E+01   2.3174598494E+01   0.0000000000E+00     0.000   1.
   25    2    1    2    0    0   0.0000000000E+00   0.0000000000E+00   1.4538279856E+02   1.9173199555E+02   1.2500000000E+02  3.673E-08  -1.
3000002    2    3    0    0    0  -5.5365700047E+01  -2.7207105519E+01   7.3940025564E+01   9.6812781764E+01   1.0000000000E+01  1.823E-10   1.
3000002    2    3    0    0    0   5.5365700047E+01   2.7207105519E+01   7.1442772996E+01   9.4919213786E+01   1.0000000000E+01  1.402E-10   1.
3000001    1    4    0    0    0  -4.7503349906E+01  -2.6857311239E+01   6.5752279360E+01   8.5453178176E+01   1.0000000000E+00     0.000   1.
3000022   2   4   0   0   0   -7.8623501409E+00   -3.4979428013E-01   8.1877462043E+00   1.1359603588E+01   2.5000000000E-01   1.178080E+00   0.
3000001    1    5    0    0    0   4.7198752566E+01   1.8958296064E+01   5.7486183511E+01   7.6764578603E+01   1.0000000000E+00     0.000  -1.
3000022   2   5   0   0   0   8.1669474815E+00   8.2488094549E+00   1.3956589485E+01   1.8154635183E+01   2.5000000000E-01   1.111961E+01   0.
13    1    7    0    0    0  -2.5055469555E+00  -1.6073303407E-01   2.5964686119E+00   3.6133467737E+00   1.0500000000E-01     0.000   1.
-13    1    7    0    0    0  -5.3568031854E+00  -1.8906124607E-01   5.5912775924E+00   7.7462568146E+00   1.0500000000E-01     0.000  -1.
13    1    9    0    0    0   6.1641691045E+00   6.1912957745E+00   1.0496187277E+01   1.3656869937E+01   1.0500000000E-01     0.000   1.
-13    1    9    0    0    0   2.0027783770E+00   2.0575136805E+00   3.4604022080E+00   4.4977652467E+00   1.0500000000E-01     0.000  -1.
</event>
<event>
 13   1  9.2978750E-05  1.2500000E+02  7.5467720E-03  1.2380620E-01
   21   -1    0    0  502  501   0.0000000000E+00   0.0000000000E+00   4.3561751617E+02   4.3561751617E+02   0.0000000000E+00     0.000  -1.
   21   -1    0    0  501  502   0.0000000000E+00   0.0000000000E+00  -8.9671554861E+00   8.9671554861E+00   0.0000000000E+00     0.000  -1.
   25    2    1    2    0    0   0.0000000000E+00   0.0000000000E+00   4.2665036069E+02   4.4458467166E+02   1.2500000000E+02  4.628E-09  -1.
3000002    2    3    0    0    0  -4.8084449405E+01   1.6211275149E+01   8.8520247094E+01   1.0252196770E+02   1.0000000000E+01  1.447E-09  -1.
3000002    2    3    0    0    0   4.8084449405E+01  -1.6211275149E+01   3.3813011360E+02   3.4206270396E+02   1.0000000000E+01  1.036E-10  -1.
3000001    1    4    0    0    0  -3.8517992286E+01   1.6669698380E+01   7.5011509298E+01   8.5960695094E+01   1.0000000000E+00     0.000   1.
3000022   2   4   0   0   0   -9.5664571188E+00   -4.5842323087E-01   1.3508737795E+01   1.6561272611E+01   2.5000000000E-01   3.931385E+00   0.
3000001    1    5    0    0    0   1.6065646954E+01  -1.1454373628E+00   9.2602369756E+01   9.3997957017E+01   1.0000000000E+00     0.000   1.
3000022   2   5   0   0   0   3.2018802450E+01   -1.5065837786E+01   2.4552774384E+02   2.4806474694E+02   2.5000000000E-01   8.236339E-01   0.
13    1    7    0    0    0  -4.9719077295E+00  -2.2313618582E-01   6.9056184141E+00   8.5128283731E+00   1.0500000000E-01     0.000  -1.
-13    1    7    0    0    0  -4.5945493893E+00  -2.3528704505E-01   6.6031193812E+00   8.0484442377E+00   1.0500000000E-01     0.000   1.
13    1    9    0    0    0   1.9317464204E+01  -9.1575635865E+00   1.4840929245E+02   1.4994117015E+02   1.0500000000E-01     0.000  -1.
-13    1    9    0    0    0   1.2701338246E+01  -5.9082741999E+00   9.7118451385E+01   9.8123576788E+01   1.0500000000E-01     0.000   1.
</event>
<event>
 13   1  9.2978750E-05  1.2500000E+02  7.5467720E-03  1.2380620E-01
   21   -1    0    0  502  501   0.0000000000E+00   0.0000000000E+00   1.9695969158E+01   1.9695969158E+01   0.0000000000E+00     0.000   1.
   21   -1    0    0  501  502   0.0000000000E+00   0.0000000000E+00  -1.9832738204E+02   1.9832738204E+02   0.0000000000E+00     0.000   1.
   25    2    1    2    0    0   0.0000000000E+00   0.0000000000E+00  -1.7863141289E+02   2.1802335120E+02   1.2500000000E+02  6.008E-08  -1.
3000002    2    3    0    0    0   2.7325908778E+01   2.4971675237E+01  -1.7540082602E+02   1.7954314140E+02   1.0000000000E+01  6.601E-11  -1.
3000002    2    3    0    0    0  -2.7325908778E+01  -2.4971675237E+01  -3.2305868682E+00   3.8480209800E+01   1.0000000000E+01  7.250E-10  -1.
3000001    1    4    0    0    0   1.1664193397E+01   6.8272391426E+00  -4.6592324343E+01   4.8523286055E+01   1.0000000000E+00     0.000  -1.
3000022   2   4   0   0   0   1.5661715381E+01   1.8144436095E+01   -1.2880850168E+02   1.3101985535E+02   2.5000000000E-01   3.000420E+00   0.
3000001    1    5    0    0    0  -2.7360984643E+01  -2.3568338793E+01  -4.7026286284E+00   3.6430821980E+01   1.0000000000E+00     0.000  -1.
3000022   2   5   0   0   0   3.5075864980E-02   -1.4033364446E+00   1.4720417602E+00   2.0493878200E+00   2.5000000000E-01   8.472539E-01   0.
13    1    7    0    0    0   7.4511726926E+00   8.5899490497E+00  -6.0772876642E+01   6.1827669854E+01   1.0500000000E-01     0.000  -1.
-13    1    7    0    0    0   8.2105426887E+00   9.5544870451E+00  -6.8035625036E+01   6.9192185491E+01   1.0500000000E-01     0.000   1.
13    1    9    0    0    0  -2.0472634822E-03  -1.0518515760E+00   1.0821824571E+00   1.5127920544E+00   1.0500000000E-01     0.000   1.
-13    1    9    0    0    0   3.7123128462E-02  -3.5148486854E-01   3.8985930314E-01   5.3659576566E-01   1.0500000000E-01     0.000  -1.
</event>
<event>
 13   1  9.2978750E-05  1.2500000E+02  7.5467720E-03  1.2380620E-01
   21   -1    0    0  502  501   0.0000000000E+00   0.0000000000E+00   7.1918648108E+00   7.1918648108E+00   0.0000000000E+00     0.000  -1.
   21   -1    0    0  501  502   0.0000000000E+00   0.0000000000E+00  -5.4314841877E+02   5.4314841877E+02   0.0000000000E+00     0.000  -1.
   25    2    1    2    0    0   0.0000000000E+00   0.0000000000E+00  -5.3595655396E+02   5.5034028358E+02   1.2500000000E+02  5.549E-09  -1.
3000002    2    3    0    0    0  -8.2626229243E+00  -4.5786616474E+01  -4.4635998073E+02   4.4888964967E+02   1.0000000000E+01  5.874E-10   1.
3000002    2    3    0    0    0   8.2626229243E+00   4.5786616474E+01  -8.9596573230E+01   1.0145063391E+02   1.0000000000E+01  1.510E-10   1.
3000001    1    4    0    0    0   1.9319121211E+00  -1.4712170036E+01  -1.4417335728E+02   1.4493839098E+02   1.0000000000E+00     0.000  -1.
3000022   2   4   0   0   0   -1.0194535045E+01   -3.1074446437E+01   -3.0218662345E+02   3.0395125869E+02   2.5000000000E-01   2.370832E+00   0.
3000001    1    5    0    0    0   1.9517036624E+00   3.4585608221E+01  -6.2758827828E+01   7.1691309889E+01   1.0000000000E+00     0.000   1.
3000022   2   5   0   0   0   6.3109192619E+00   1.1201008253E+01   -2.6837745402E+01   2.9759324019E+01   2.5000000000E-01   2.032774E+01   0.
13    1    7    0    0    0  -5.2410964431E+00  -1.6060942254E+01  -1.5552678690E+02   1.5644173173E+02   1.0500000000E-01     0.000   1.
-13    1    7    0    0    0  -4.9534386024E+00  -1.5013504183E+01  -1.4665983655E+02   1.4750952696E+02   1.0500000000E-01     0.000  -1.
13    1    9    0    0    0   2.9004529225E+00   5.0885993163E+00  -1.2087610420E+01   1.3432342343E+01   1.0500000000E-01     0.000  -1.
-13    1    9    0    0    0   3.4104663394E+00   6.1124089369E+00  -1.4750134982E+01   1.6326981676E+01   1.0500000000E-01     0.000   1.
</event>
<event>
 13   1  9.2978750E-05  1.2500000E+02  7.5467720E-03  1.2380620E-01
   21   -1    0    0  502  501   0.0000000000E+00   0.0000000000E+00   7.3220918576E+02   7.3220918576E+02   0.0000000000E+00     0.000   1.
   21   -1    0    0  501  502   0.0000000000E+00   0.0000000000E+00  -5.3348825390E+00   5.3348825390E+00   0.0000000000E+00     0.000   1.
   25    2    1    2    0    0   0.0000000000E+00   0.0000000000E+00   7.2687430322E+02   7.3754406830E+02   1.2500000000E+02  8.150E-09  -1.
3000002    2    3    0    0    0  -3.6922260165E+00  -3.5571654256E+01   6.6814575771E+01   7.6440582513E+01   1.0000000000E+01  9.551E-10   1.
3000002    2    3    0    0    0   3.6922260165E+00   3.5571654256E+01   6.6005972745E+02   6.6110348579E+02   1.0000000000E+01  7.429E-10   1.
3000001    1    4    0    0    0  -2.5484890931E+00  -3.5803968510E+01   6.4042762924E+01   7.3422710660E+01   1.0000000000E+00     0.000   1.
3000022   2   4   0   0   0   -1.1437369234E+00   2.3231425386E-01   2.7718128473E+00   3.0178718533E+00   2.5000000000E-01   5.274694E+00   1.
3000001    1    5    0    0    0   6.2437162272E+00   1.7165132590E+01   3.6632168733E+02   3.6677814054E+02   1.0000000000E+00     0.000   1.
3000022   2   5   0   0   0   -2.5514902107E+00   1.8406521667E+01   2.9373804012E+02   2.9432534525E+02   2.5000000000E-01   1.219487E+01   0.
13    1    7    0    0    0  -5.1362882697E-01   3.7509619848E-02   1.2433975393E+00   1.3499199917E+00   1.0500000000E-01     0.000   1.
-13    1    7    0    0    0  -6.3010809644E-01   1.9480463401E-01   1.5284153080E+00   1.6679518615E+00   1.0500000000E-01     0.000   1.
13    1    9    0    0    0  -6.5454757864E-01   4.7487031821E+00   7.5304484771E+01   7.5456974933E+01   1.0500000000E-01     0.000   1.
-13    1    9    0    0    0  -1.8969426321E+00   1.3657818485E+01   2.1843355535E+02   2.1886837032E+02   1.0500000000E-01     0.000  -1.
</event>
<event>
 13   1  9.2978750E-05  1.2500000E+02  7.5467720E-03  1.2380620E-01
   21   -1    0    0  502  501   0.0000000000E+00   0.0000000000E+00   1.4981887152E+02   1.4981887152E+02   0.0000000000E+00     0.000  -1.
   21   -1    0    0  501  502   0.0000000000E+00   0.0000000000E+00  -2.6073150600E+01   2.6073150600E+01   0.0000000000E+00     0.000  -1.
   25    2    1    2    0    0   0.0000000000E+00   0.0000000000E+00   1.2374572092E+02   1.7589202212E+02   1.2500000000E+02  1.257E-08  -1.
3000002    2    3    0    0    0   1.4022892423E+01  -4.6237837956E+01   7.8917928556E+00   4.9968585784E+01   1.0000000000E+01  8.386E-10   1.
3000002    2    3    0    0    0  -1.4022892423E+01   4.6237837956E+01   1.1585392806E+02   1.2592343634E+02   1.0000000000E+01  1.083E-09   1.
3000001    1    4    0    0    0   8.5893035185E+00  -4.0561826655E+01   6.3344655705E+00   4.1954300978E+01   1.0000000000E+00     0.000   1.
3000022   2   4   0   0   0   5.4335889041E+00   -5.6760113014E+00   1.5573272851E+00   8.0142848056E+00   2.5000000000E-01   6.664249E+00   0.
3000001    1    5    0    0    0  -1.6935019366E+00   2.1963736863E+01   5.5018476704E+01   5.9273151297E+01   1.0000000000E+00     0.000  -1.
3000022   2   5   0   0   0   -1.2329390486E+01   2.4274101093E+01   6.0835451360E+01   6.6650285039E+01   2.5000000000E-01   8.690592E+00   0.
13    1    7    0    0    0   2.9588826098E+00  -3.1703333052E+00   8.9768081019E-01   4.4297692267E+00   1.0500000000E-01     0.000   1.
-13    1    7    0    0    0   2.4747062943E+00  -2.5056779963E+00   6.5964647491E-01   3.5845155790E+00   1.0500000000E-01     0.000  -1.
13    1    9    0    0    0  -2.8206816501E+00   5.5605855143E+00   1.3934220300E+01   1.5265971197E+01   1.0500000000E-01     0.000   1.
-13    1    9    0    0    0  -9.5087088358E+00   1.8713515579E+01   4.6901231060E+01   5.1384313842E+01   1.0500000000E-01     0.000  -1.
</event>
<event>
 13   1  9.2978750E-05  1.2500000E+02  7.5467720E-03  1.2380620E-01
   21   -1    0    0  502  501   0.0000000000E+00   0.0000000000E+00   2.7399573577E+01   2.7399573577E+01   0.0000000000E+00     0.000  -1.
   21   -1    0    0  501  502   0.0000000000E+00   0.0000000000E+00  -1.4256608735E+02   1.4256608735E+02   0.0000000000E+00     0.000  -1.
   25    2    1    2    0    0   0.0000000000E+00   0.0000000000E+00  -1.1516651377E+02   1.6996566093E+02   1.2500000000E+02  1.795E-07  -1.
3000002    2    3    0    0    0  -6.1130200897E+01  -2.6893448657E+00  -6.8299752368E+01   9.2244187953E+01   1.0000000000E+01  9.998E-11   1.
3000002    2    3    0    0    0   6.1130200897E+01   2.6893448657E+00  -4.6866761402E+01   7.7721472977E+01   1.0000000000E+01  1.560E-10   1.
3000001    1    4    0    0    0  -6.2736040646E+00   2.4910281747E+00  -9.0251362576E+00   1.1314433870E+01   1.0000000000E+00     0.000  -1.
3000022   2   4   0   0   0   -5.4856596832E+01   -5.1803730405E+00   -5.9274616111E+01   8.0929754083E+01   2.5000000000E-01   1.799426E+00   0.
3000001    1    5    0    0    0   3.5788685217E+01   5.4631796812E+00  -3.1164241163E+01   4.7779558904E+01   1.0000000000E+00     0.000   1.
3000022   2   5   0   0   0   2.5341515680E+01   -2.7738348155E+00   -1.5702520239E+01   2.9941914073E+01   2.5000000000E-01   2.099559E-03   0.
13    1    7    0    0    0  -1.6306684256E+01  -1.4948153867E+00  -1.7620925752E+01   2.4055154828E+01   1.0500000000E-01     0.000   1.
-13    1    7    0    0    0  -3.8549912576E+01  -3.6855576538E+00  -4.1653690359E+01   5.6874599254E+01   1.0500000000E-01     0.000  -1.
13    1    9    0    0    0   1.7837564785E+01  -1.9905293455E+00  -1.1027093492E+01   2.1065344536E+01   1.0500000000E-01     0.000   1.
-13    1    9    0    0    0   7.5039508950E+00  -7.8330547005E-01  -4.6754267462E+00   8.8765695374E+00   1.0500000000E-01     0.000  -1.
</event>
<event>
 13   1  9.2978750E-05  1.2500000E+02  7.5467720E-03  1.2380620E-01
   21   -1    0    0  502  501   0.0000000000E+00   0.0000000000E+00   2.6295314288E+02   2.6295314288E+02   0.0000000000E+00     0.000  -1.
   21   -1    0    0  501  502   0.0000000000E+00   0.0000000000E+00  -1.4855308277E+01   1.4855308277E+01   0.0000000000E+00     0.000  -1.
   25    2    1    2    0    0   0.0000000000E+00   0.0000000000E+00   2.4809783461E+02   2.7780845116E+02   1.2500000000E+02  8.148E-09  -1.
3000002    2    3    0    0    0   4.6815991950E+01  -3.2214460269E+01   1.7742245892E+02   1.8656965852E+02   1.0000000000E+01  7.979E-10  -1.
3000002    2    3    0    0    0  -4.6815991950E+01   3.2214460269E+01   7.0675375690E+01   9.1238792636E+01   1.0000000000E+01  3.146E-10  -1.
3000001    1    4    0    0    0   3.2645302401E+01  -2.6360167693E+01   1.3906421098E+02   1.4525986708E+02   1.0000000000E+00     0.000  -1.
3000022   2   4   0   0   0   1.4170689549E+01   -5.8542925761E+00   3.8358247943E+01   4.1309791443E+01   2.5000000000E-01   3.258172E+00   0.
3000001    1    5    0    0    0  -5.7242302267E+00   1.9250785093E+00   1.1950758509E+01   1.3427336590E+01   1.0000000000E+00     0.000   1.
3000022   2   5   0   0   0   -4.1091761723E+01   3.0289381760E+01   5.8724617181E+01   7.7811456046E+01   2.5000000000E-01   6.942302E+00   0.
13    1    7    0    0    0   4.5965534106E+00  -1.8436580223E+00   1.2405992576E+01   1.3358407651E+01   1.0500000000E-01     0.000   1.
-13    1    7    0    0    0   9.5741361385E+00  -4.0106345538E+00   2.5952255366E+01   2.7951383793E+01   1.0500000000E-01     0.000  -1.
13    1    9    0    0    0  -2.2446005450E+01   1.6474131606E+01   3.2081712058E+01   4.2479023605E+01   1.0500000000E-01     0.000  -1.
-13    1    9    0    0    0  -1.8645756273E+01   1.3815250155E+01   2.6642905123E+01   3.5332432441E+01   1.0500000000E-01     0.000   1.
</event>
<event>
 13   1  9.2978750E-05  1.2500000E+02  7.5467720E-03  1.2380620E-01
   21   -1    0    0  502  501   0.0000000000E+00   0.0000000000E+00   1.2906505173E+01   1.2906505173E+01   0.0000000000E+00     0.000  -1.
   21   -1    0    0  501  502   0.0000000000E+00   0.0000000000E+00  -3.0265745433E+02   3.0265745433E+02   0.0000000000E+00     0.000  -1.
   25    2    1    2    0    0   0.0000000000E+00   0.0000000000E+00  -2.8975094916E+02   3.1556395951E+02   1.2500000000E+02  1.146E-08  -1.
3000002    2    3    0    0    0  -1.2190568959E+00   3.0707516370E+01  -9.8244262931E+00   3.3778055204E+01   1.0000000000E+01  4.216E-10  -1.
3000002    2    3    0    0    0   1.2190568959E+00  -3.0707516370E+01  -2.7992652287E+02   2.8178590431E+02   1.0000000000E+01  1.754E-10  -1.
3000001    1    4    0    0    0   2.1103486803E+00   2.8902234449E+00   8.2351843268E-01   3.8059355910E+00   1.0000000000E+00     0.000   1.
3000022   2   4   0   0   0   -3.3294055761E+00   2.7817292926E+01   -1.0647944726E+01   2.9972119613E+01   2.5000000000E-01   5.680184E+00   0.
3000001    1    5    0    0    0   7.2624099052E-02   4.7295447344E-01  -1.0698398019E+01   1.0755681306E+01   1.0000000000E+00     0.000  -1.
3000022   2   5   0   0   0   1.1464327968E+00   -3.1180470844E+01   -2.6922812485E+02   2.7103022300E+02   2.5000000000E-01   8.923006E+00   0.
13    1    7    0    0    0  -1.2530887011E+00   1.0310007346E+01  -4.0079278878E+00   1.1132878950E+01   1.0500000000E-01     0.000   1.
-13    1    7    0    0    0  -2.0763168750E+00   1.7507285580E+01  -6.6400168380E+00   1.8839240663E+01   1.0500000000E-01     0.000  -1.
13    1    9    0    0    0   4.4360064250E-01  -1.3547226503E+01  -1.1663661286E+02   1.1742161050E+02   1.0500000000E-01     0.000   1.
-13    1    9    0    0    0   7.0283215432E-01  -1.7633244341E+01  -1.5259151199E+02   1.5360861250E+02   1.0500000000E-01     0.000  -1.
</event>
<event>
 13   1  9.2978750E-05  1.2500000E+02  7.5467720E-03  1.2380620E-01
   21   -1    0    0  502  501   0.0000000000E+00   0.0000000000E+00   1.0837877624E+02   1.0837877624E+02   0.0000000000E+00     0.000   1.
   21   -1    0    0  501  502   0.0000000000E+00   0.0000000000E+00  -3.6042573423E+01   3.6042573423E+01   0.0000000000E+00     0.000   1.
   25    2    1    2    0    0   0.0000000000E+00   0.0000000000E+00   7.2336202812E+01   1.4442134966E+02   1.2500000000E+02  2.511E-08  -1.
3000002    2    3    0    0    0  -1.4346764603E+01  -4.8334553653E+01  -4.9116474186E+00   5.1635094769E+01   1.0000000000E+01  7.410E-10   1.
3000002    2    3    0    0    0   1.4346764603E+01   4.8334553653E+01   7.7247850231E+01   9.2786254891E+01   1.0000000000E+01  1.519E-10   1.
3000001    1    4    0    0    0  -1.5751458508E+01  -4.5209377748E+01  -3.8519875447E+00   4.8039921831E+01   1.0000000000E+00     0.000   1.
3000022   2   4   0   0   0   1.4046939049E+00   -3.1251759055E+00   -1.0596598739E+00   3.5951729381E+00   2.5000000000E-01   6.024649E+00   0.
3000001    1    5    0    0    0   8.7010076707E+00   4.2006377796E+01   6.5056123837E+01   7.7932936290E+01   1.0000000000E+00     0.000   1.
3000022   2   5   0   0   0   5.6457569320E+00   6.3281758577E+00   1.2191726393E+01   1.4853318601E+01   2.5000000000E-01   3.372419E-01   0.
13    1    7    0    0    0   8.0793335742E-01  -1.6338823487E+00  -5.5665290927E-01   1.9087208546E+00   1.0500000000E-01     0.000   1.
-13    1    7    0    0    0   5.9676054749E-01  -1.4912935567E+00  -5.0300696464E-01   1.6864520835E+00   1.0500000000E-01     0.000  -1.
13    1    9    0    0    0   3.7249283665E+00   4.1304085350E+00   8.0761565758E+00   9.8066658981E+00   1.0500000000E-01     0.000  -1.
-13    1    9    0    0    0   1.9208285655E+00   2.1977673227E+00   4.1155698174E+00   5.0466527030E+00   1.0500000000E-01     0.000   1.
</event>
<event>
 13   1  9.2978750E-05  1.2500000E+02  7.5467720E-03  1.2380620E-01
   21   -1    0    0  502  501   0.0000000000E+00   0.0000000000E+00   1.8435940091E+02   1.8435940091E+02   0.0000000000E+00     0.000   1.
   21   -1    0    0  501  502   0.0000000000E+00   0.0000000000E+00  -2.1188233313E+01   2.1188233313E+01   0.0000000000E+00     0.000   1.
   25    2    1    2    0    0   0.0000000000E+00   0.0000000000E+00   1.6317116760E+02   2.0554763423E+02   1.2500000000E+02  5.253E-08  -1.
3000002    2    3    0    0    0  -5.6096404976E+01   5.4921705374E+00   4.0335557369E+01   7.0028049928E+01   1.0000000000E+01  2.235E-10  -1.
3000002    2    3    0    0    0   5.6096404976E+01  -5.4921705374E+00   1.2283561023E+02   1.3551958430E+02   1.0000000000E+01  5.709E-10  -1.
3000001    1    4    0    0    0  -1.8814704991E+01   6.0996877937E+00   1.6463285360E+01   2.5753428508E+01   1.0000000000E+00     0.000  -1.
3000022   2   4   0   0   0   -3.7281699986E+01   -6.0751725637E-01   2.3872272009E+01   4.4274621420E+01   2.5000000000E-01   5.603194E+00   0.
3000001    1    5    0    0    0   3.9882305258E+01  -6.3907213041E+00   7.8195901253E+01   8.8017262876E+01   1.0000000000E+00     0.000   1.
3000022   2   5   0   0   0   1.6214099719E+01   8.9855076678E-01   4.4639708978E+01   4.7502321426E+01   2.5000000000E-01   2.578089E+00   0.
13    1    7    0    0    0  -1.7713949405E+01  -2.2668290913E-01   1.1373903251E+01   2.1052602899E+01   1.0500000000E-01     0.000   1.
-13    1    7    0    0    0  -1.9567750581E+01  -3.8083434724E-01   1.2498368757E+01   2.3222018521E+01   1.0500000000E-01     0.000  -1.
13    1    9    0    0    0   6.2145995350E+00   3.0446579772E-01   1.7240672126E+01   1.8329368433E+01   1.0500000000E-01     0.000  -1.
-13    1    9    0    0    0   9.9995001836E+00   5.9408496906E-01   2.7399036852E+01   2.9172952992E+01   1.0500000000E-01     0.000   1.
</event>
<event>
 13   1  9.2978750E-05  1.2500000E+02  7.5467720E-03  1.2380620E-01
   21   -1    0    0  502  501   0.0000000000E+00   0.0000000000E+00   1.9202625283E+02   1.9202625283E+02   0.0000000000E+00     0.000   1.
   21   -1    0    0  501  502   0.0000000000E+00   0.0000000000E+00  -2.0342270614E+01   2.0342270614E+01   0.0000000000E+00     0.000   1.
   25    2    1    2    0    0   0.0000000000E+00   0.0000000000E+00   1.7168398222E+02   2.1236852344E+02   1.2500000000E+02  5.621E-08  -1.
3000002    2    3    0    0    0   8.1320199327E+00  -5.5400739801E+01   4.1836993624E+01   7.0609530194E+01   1.0000000000E+01  5.210E-10  -1.
3000002    2    3    0    0    0  -8.1320199327E+00   5.5400739801E+01   1.2984698860E+02   1.4175899325E+02   1.0000000000E+01  5.903E-10  -1.
3000001    1    4    0    0    0  -9.6807007513E-01  -1.9698313545E+01   1.8047489901E+01   2.6752058013E+01   1.0000000000E+00     0.000  -1.
3000022   2   4   0   0   0   9.1000900078E+00   -3.5702426257E+01   2.3789503723E+01   4.3857472181E+01   2.5000000000E-01   7.194131E-01   0.
3000001    1    5    0    0    0  -6.6343877582E+00   1.9353296986E+01   5.4414868702E+01   5.8142438382E+01   1.0000000000E+00     0.000   1.
3000022   2   5   0   0   0   -1.4976321745E+00   3.6047442815E+01   7.5432119894E+01   8.3616554864E+01   2.5000000000E-01   3.520571E+00   0.
13    1    7    0    0    0   6.2317518424E+00  -2.4492156321E+01   1.6375247630E+01   3.0114119815E+01   1.0500000000E-01     0.000   1.
-13    1    7    0    0    0   2.8683381654E+00  -1.1210269935E+01   7.4142560926E+00   1.3743352366E+01   1.0500000000E-01     0.000  -1.
13    1    9    0    0    0  -3.5492250518E-01   9.1355039009E+00   1.9147823604E+01   2.1218708144E+01   1.0500000000E-01     0.000  -1.
-13    1    9    0    0    0  -1.1427096693E+00   2.6911938914E+01   5.6284296290E+01   6.2397846720E+01   1.0500000000E-01     0.000   1.
</event>
<event>
 13   1  9.2978750E-05  1.2500000E+02  7.5467720E-03  1.2380620E-01
   21   -1    0    0  502  501   0.0000000000E+00   0.0000000000E+00   1.5840160192E+02   1.5840160192E+02   0.0000000000E+00     0.000   1.
   21   -1    0    0  501  502   0.0000000000E+00   0.0000000000E+00  -2.4660419797E+01   2.4660419797E+01   0.0000000000E+00     0.000   1.
   25    2    1    2    0    0   0.0000000000E+00   0.0000000000E+00   1.3374118212E+02   1.8306202172E+02   1.2500000000E+02  7.835E-08  -1.
3000002    2    3    0    0    0  -2.6966585838E-01  -6.1644365082E+01   7.0502285959E+01   9.4184249169E+01   1.0000000000E+01  4.159E-10  -1.
3000002    2    3    0    0    0   2.6966585838E-01   6.1644365082E+01   6.3238896161E+01   8.8877772551E+01   1.0000000000E+01  1.587E-09  -1.
3000001    1    4    0    0    0   4.2542499200E+00  -2.1565810118E+01   2.7627773485E+01   3.5319635844E+01   1.0000000000E+00     0.000  -1.
3000022   2   4   0   0   0   -4.5239157784E+00   -4.0078554964E+01   4.2874512474E+01   5.8864613325E+01   2.5000000000E-01   2.690419E+00   0.
3000001    1    5    0    0    0  -1.6761984812E+00   5.0556471879E+01   5.6103830410E+01   7.5547377697E+01   1.0000000000E+00     0.000   1.
3000022   2   5   0   0   0   1.9458643396E+00   1.1087893203E+01   7.1350657513E+00   1.3330394855E+01   2.5000000000E-01   6.762131E+00   0.
13    1    7    0    0    0  -3.3113201910E+00  -2.9316198572E+01   3.1309710259E+01   4.3019917732E+01   1.0500000000E-01     0.000  -1.
-13    1    7    0    0    0  -1.2125955874E+00  -1.0762356392E+01   1.1564802215E+01   1.5844695593E+01   1.0500000000E-01     0.000   1.
13    1    9    0    0    0   1.4251400701E+00   7.8857823365E+00   5.0926611519E+00   9.4954099378E+00   1.0500000000E-01     0.000   1.
-13    1    9    0    0    0   5.2072426951E-01   3.2021108663E+00   2.0424045994E+00   3.8349849168E+00   1.0500000000E-01     0.000  -1.
</event>
<event>
 13   1  9.2978750E-05  1.2500000E+02  7.5467720E-03  1.2380620E-01
   21   -1    0    0  502  501   0.0000000000E+00   0.0000000000E+00   7.8311215603E+00   7.8311215603E+00   0.0000000000E+00     0.000   1.
   21   -1    0    0  501  502   0.0000000000E+00   0.0000000000E+00  -4.9881105407E+02   4.9881105407E+02   0.0000000000E+00     0.000   1.
   25    2    1    2    0    0   0.0000000000E+00   0.0000000000E+00  -4.9097993251E+02   5.0664217563E+02   1.2500000000E+02  1.930E-09  -1.
3000002    2    3    0    0    0   1.8625081610E+00  -5.0481830551E+01  -3.8904004580E+02   3.9243348658E+02   1.0000000000E+01  2.001E-09  -1.
3000002    2    3    0    0    0  -1.8625081610E+00   5.0481830551E+01  -1.0193988671E+02   1.1420868905E+02   1.0000000000E+01  4.547E-10  -1.
3000001    1    4    0    0    0  -7.9918513452E-01  -3.3278692882E+01  -2.8607585793E+02   2.8800782383E+02   1.0000000000E+00     0.000  -1.
3000022   2   4   0   0   0   2.6616932955E+00   -1.7203137669E+01   -1.0296418787E+02   1.0442566275E+02   2.5000000000E-01   2.353367E+01   0.
3000001    1    5    0    0    0  -6.9325794015E-01   3.9252109395E+01  -8.7241426630E+01   9.5672750660E+01   1.0000000000E+00     0.000  -1.
3000022   2   5   0   0   0   -1.1692502208E+00   1.1229721156E+01   -1.4698460083E+01   1.8535938394E+01   2.5000000000E-01   7.835396E+00   0.
13    1    7    0    0    0   1.9774275080E+00  -1.2804273605E+01  -7.6451864754E+01   7.7541977609E+01   1.0500000000E-01     0.000  -1.
-13    1    7    0    0    0   6.8426578747E-01  -4.3988640636E+00  -2.6512323113E+01   2.6883685137E+01   1.0500000000E-01     0.000   1.
13    1    9    0    0    0  -5.4366798106E-01   5.0223251644E+00  -6.4730100833E+00   8.2115899477E+00   1.0500000000E-01     0.000  -1.
-13    1    9    0    0    0  -6.2558223975E-01   6.2073959917E+00  -8.2254499997E+00   1.0324348446E+01   1.0500000000E-01     0.000   1.
</event>
<event>
 13   1  9.2978750E-05  1.2500000E+02  7.5467720E-03  1.2380620E-01
   21   -1    0    0  502  501   0.0000000000E+00   0.0000000000E+00   9.3825054229E+01   9.3825054229E+01   0.0000000000E+00     0.000  -1.
   21   -1    0    0  501  502   0.0000000000E+00   0.0000000000E+00  -4.1633335915E+01   4.1633335915E+01   0.0000000000E+00     0.000  -1.
   25    2    1    2    0    0   0.0000000000E+00   0.0000000000E+00   5.2191718314E+01   1.3545839014E+02   1.2500000000E+02  2.227E-08  -1.
3000002    2    3    0    0    0   1.0884075062E+01   5.7581319025E+01   5.1898276228E+00   5.9674162763E+01   1.0000000000E+01  2.573E-09   1.
3000002    2    3    0    0    0  -1.0884075062E+01  -5.7581319025E+01   4.7001890691E+01   7.5784227377E+01   1.0000000000E+01  1.141E-09   1.
3000001    1    4    0    0    0  -1.0286444077E+00   1.5645458312E+01   3.1956544605E+00   1.6032800209E+01   1.0000000000E+00     0.000  -1.
3000022   2   4   0   0   0   1.1912719469E+01   4.1935860714E+01   1.9941731623E+00   4.3641362554E+01   2.5000000000E-01   5.535500E+00   0.
3000001    1    5    0    0    0  -5.7234061498E+00  -2.1752306745E+01   2.3932698066E+01   3.2858701487E+01   1.0000000000E+00     0.000   1.
3000022   2   5   0   0   0   -5.1606689118E+00   -3.5829012280E+01   2.3069192625E+01   4.2925525890E+01   2.5000000000E-01   1.008861E+01   0.
13    1    7    0    0    0   5.9645673727E+00   2.1222672481E+01   9.8027547260E-01   2.2066940345E+01   1.0500000000E-01     0.000  -1.
-13    1    7    0    0    0   5.9481520966E+00   2.0713188232E+01   1.0138976897E+00   2.1574422209E+01   1.0500000000E-01     0.000   1.
13    1    9    0    0    0  -2.6102945970E+00  -1.8398500680E+01   1.1907987193E+01   2.2071013777E+01   1.0500000000E-01     0.000  -1.
-13    1    9    0    0    0  -2.5503743148E+00  -1.7430511600E+01   1.1161205431E+01   2.0854512113E+01   1.0500000000E-01     0.000   1.
</event>
<event>
 13   1  9.2978750E-05  1.2500000E+02  7.5467720E-03  1.2380620E-01
   21   -1    0    0  502  501   0.0000000000E+00   0.0000000000E+00   1.8122971921E+03   1.8122971921E+03   0.0000000000E+00     0.000   1.
   21   -1    0    0  501  502   0.0000000000E+00   0.0000000000E+00  -2.1554135916E+00   2.1554135916E+00   0.0000000000E+00     0.000   1.
   25    2    1    2    0    0   0.0000000000E+00   0.0000000000E+00   1.8101417786E+03   1.8144526057E+03   1.2500000000E+02  1.697E-07  -1.
3000002    2    3    0    0    0  -5.5544689719E+01  -1.9768863579E+01   6.4128990252E+02   6.4407201430E+02   1.0000000000E+01  1.860E-09   1.
3000002    2    3    0    0    0   5.5544689719E+01   1.9768863579E+01   1.1688518761E+03   1.1703805914E+03   1.0000000000E+01  3.970E-12   1.
3000001    1    4    0    0    0  -3.4645747696E+01  -1.0489241683E+01   4.3988299520E+02   4.4137104741E+02   1.0000000000E+00     0.000   1.
3000022   2   4   0   0   0   -2.0898942023E+01   -9.2796218965E+00   2.0140690732E+02   2.0270096688E+02   2.5000000000E-01   4.253470E+00   0.
3000001    1    5    0    0    0   3.5067258387E+01   1.7367186259E+01   7.4619557193E+02   7.4722162933E+02   1.0000000000E+00     0.000   1.
3000022   2   5   0   0   0   2.0477431332E+01   2.4016773205E+00   4.2265630415E+02   4.2315896208E+02   2.5000000000E-01   5.681663E+00   0.
13    1    7    0    0    0  -1.5427269408E+01  -6.8211843929E+00   1.4873760983E+02   1.4969107121E+02   1.0500000000E-01     0.000  -1.
-13    1    7    0    0    0  -5.4716726145E+00  -2.4584375036E+00   5.2669297494E+01   5.3009895677E+01   1.0500000000E-01     0.000   1.
13    1    9    0    0    0   8.1620212812E+00   8.9417805253E-01   1.6821695128E+02   1.6841725526E+02   1.0500000000E-01     0.000  -1.
-13    1    9    0    0    0   1.2315410051E+01   1.5074992679E+00   2.5443935287E+02   2.5474170682E+02   1.0500000000E-01     0.000   1.
</event>
<event>
 13   1  9.2978750E-05  1.2500000E+02  7.5467720E-03  1.2380620E-01
   21   -1    0    0  502  501   0.0000000000E+00   0.0000000000E+00   3.5732031750E+01   3.5732031750E+01   0.0000000000E+00     0.000   1.
   21   -1    0    0  501  502   0.0000000000E+00   0.0000000000E+00  -1.0932067976E+02   1.0932067976E+02   0.0000000000E+00     0.000   1.
   25    2    1    2    0    0   0.0000000000E+00   0.0000000000E+00  -7.3588648008E+01   1.4505271151E+02   1.2500000000E+02  9.925E-09  -1.
3000002    2    3    0    0    0  -3.6395970333E+01  -4.4996830237E+01  -1.1990907863E+01   5.9943000085E+01   1.0000000000E+01  1.001E-09   1.
3000002    2    3    0    0    0   3.6395970333E+01   4.4996830237E+01  -6.1597740145E+01   8.5109711425E+01   1.0000000000E+01  1.266E-09   1.
3000001    1    4    0    0    0  -3.1174090492E+01  -3.9477145374E+01  -6.8744924880E+00   5.0779204128E+01   1.0000000000E+00     0.000   1.
3000022   2   4   0   0   0   -5.2218798415E+00   -5.5196848623E+00   -5.1164153751E+00   9.1637959574E+00   2.5000000000E-01   3.732356E+00   0.
3000001    1    5    0    0    0   2.9679443695E+01   2.9610753419E+01  -4.4483210686E+01   6.1134459424E+01   1.0000000000E+00     0.000   1.
3000022   2   5   0   0   0   6.7165266383E+00   1.5386076817E+01   -1.7114529459E+01   2.3975252001E+01   2.5000000000E-01   1.172431E+00   0.
13    1    7    0    0    0  -3.8711304390E+00  -4.1264683675E+00  -3.7876453198E+00   6.8096016134E+00   1.0500000000E-01     0.000   1.
-13    1    7    0    0    0  -1.3507494024E+00  -1.3932164949E+00  -1.3287700553E+00   2.3541943441E+00   1.0500000000E-01     0.000  -1.
13    1    9    0    0    0   3.7027888342E+00   8.5801472035E+00  -9.4499416049E+00   1.3290673140E+01   1.0500000000E-01     0.000  -1.
-13    1    9    0    0    0   3.0137378041E+00   6.8059296136E+00  -7.6645878539E+00   1.0684578861E+01   1.0500000000E-01     0.000   1.
</event>
<event>
 13   1  9.2978750E-05  1.2500000E+02  7.5467720E-03  1.2380620E-01
   21   -1    0    0  502  501   0.0000000000E+00   0.0000000000E+00   3.9593994101E+01   3.9593994101E+01   0.0000000000E+00     0.000   1.
   21   -1    0    0  501  502   0.0000000000E+00   0.0000000000E+00  -9.8657639592E+01   9.8657639592E+01   0.0000000000E+00     0.000   1.
   25    2    1    2    0    0   0.0000000000E+00   0.0000000000E+00  -5.9063645492E+01   1.3825163369E+02   1.2500000000E+02  3.297E-08  -1.
3000002    2    3    0    0    0   4.7672877186E+01   2.5571525032E+01   3.2711878114E+00   5.5111766270E+01   1.0000000000E+01  1.820E-10  -1.
3000002    2    3    0    0    0  -4.7672877186E+01  -2.5571525032E+01  -6.2334833303E+01   8.3139867420E+01   1.0000000000E+01  1.150E-09  -1.
3000001    1    4    0    0    0   2.6435509756E+01   1.8260096145E+01   5.2189471244E+00   3.2565391083E+01   1.0000000000E+00     0.000   1.
3000022   2   4   0   0   0   2.1237367430E+01   7.3114288872E+00   -1.9477593131E+00   2.2546375187E+01   2.5000000000E-01   1.180049E+01   0.
3000001    1    5    0    0    0  -2.2992571414E+01  -1.6980298767E+01  -2.8372868396E+01   4.0286580240E+01   1.0000000000E+00     0.000   1.
3000022   2   5   0   0   0   -2.4680305773E+01   -8.5912262652E+00   -3.3961964908E+01   4.2853287180E+01   2.5000000000E-01   1.378960E+00   0.
13    1    7    0    0    0   1.0979586859E+01   3.7850226876E+00  -9.3934506993E-01   1.1652086444E+01   1.0500000000E-01     0.000  -1.
-13    1    7    0    0    0   1.0257780571E+01   3.5264061997E+00  -1.0084142431E+00   1.0894288743E+01   1.0500000000E-01     0.000   1.
13    1    9    0    0    0  -8.2487861846E+00  -2.8159848761E+00  -1.1346381343E+01   1.4308166861E+01   1.0500000000E-01     0.000   1.
-13    1    9    0    0    0  -1.6431519588E+01  -5.7752413892E+00  -2.2615583564E+01   2.8545120319E+01   1.0500000000E-01     0.000  -1.
</event>
<event>
 13   1  9.2978750E-05  1.2500000E+02  7.5467720E-03  1.2380620E-01
   21   -1    0    0  502  501   0.0000000000E+00   0.0000000000E+00   5.0287833355E+01   5.0287833355E+01   0.0000000000E+00     0.000   1.
   21   -1    0    0  501  502   0.0000000000E+00   0.0000000000E+00  -7.7677834566E+01   7.7677834566E+01   0.0000000000E+00     0.000   1.
   25    2    1    2    0    0   0.0000000000E+00   0.0000000000E+00  -2.7390001211E+01   1.2796566792E+02   1.2500000000E+02  6.835E-08  -1.
3000002    2    3    0    0    0   5.7436919028E+00  -5.7444883440E+01   8.5776816536E+00   5.9215549078E+01   1.0000000000E+01  9.239E-10   1.
3000002    2    3    0    0    0  -5.7436919028E+00   5.7444883440E+01  -3.5967682865E+01   6.8750118842E+01   1.0000000000E+01  6.615E-10   1.
3000001    1    4    0    0    0   1.7412200676E+00  -1.7602805235E+01   7.2707473643E+00   1.9150832011E+01   1.0000000000E+00     0.000   1.
3000022   2   4   0   0   0   4.0024718352E+00   -3.9842078205E+01   1.3069342893E+00   4.0064717068E+01   2.5000000000E-01   8.000532E-02   0.
3000001    1    5    0    0    0  -1.1278594884E+00   1.0324356180E+01  -1.1235337842E+01   1.5332880159E+01   1.0000000000E+00     0.000   1.
3000022   2   5   0   0   0   -4.6158324145E+00   4.7120527260E+01   -2.4732345023E+01   5.3417238683E+01   2.5000000000E-01   2.160093E+00   0.
13    1    7    0    0    0   2.7323243839E+00  -2.7669511978E+01   9.0266433728E-01   2.7818938109E+01   1.0500000000E-01     0.000  -1.
-13    1    7    0    0    0   1.2701474513E+00  -1.2172566227E+01   4.0426995205E-01   1.2245778958E+01   1.0500000000E-01     0.000   1.
13    1    9    0    0    0  -1.8626164121E+00   1.9546043528E+01  -1.0213520921E+01   2.2132423999E+01   1.0500000000E-01     0.000   1.
-13    1    9    0    0    0  -2.7532160024E+00   2.7574483733E+01  -1.4518824102E+01   3.1284814684E+01   1.0500000000E-01     0.000  -1.
</event>
<event>
 13   1  9.2978750E-05  1.2500000E+02  7.5467720E-03  1.2380620E-01
   21   -1    0    0  502  501   0.0000000000E+00   0.0000000000E+00   1.4189844728E+02   1.4189844728E+02   0.0000000000E+00     0.000  -1.
   21   -1    0    0  501  502   0.0000000000E+00   0.0000000000E+00  -2.7528490092E+01   2.7528490092E+01   0.0000000000E+00     0.000  -1.
   25    2    1    2    0    0   0.0000000000E+00   0.0000000000E+00   1.1436995719E+02   1.6942693737E+02   1.2500000000E+02  6.261E-09  -1.
3000002    2    3    0    0    0  -1.6841696275E+01  -2.6562536422E+01  -1.4754762656E+01   3.6151266860E+01   1.0000000000E+01  3.513E-10  -1.
3000002    2    3    0    0    0   1.6841696275E+01   2.6562536422E+01   1.2912471985E+02   1.3327567051E+02   1.0000000000E+01  4.927E-11  -1.
3000001    1    4    0    0    0  -4.3725466855E+00  -5.8137158673E+00   7.8424558381E-01   7.3846799415E+00   1.0000000000E+00     0.000   1.
3000022   2   4   0   0   0   -1.2469149589E+01   -2.0748820555E+01   -1.5539008240E+01   2.8766586919E+01   2.5000000000E-01   2.355276E+01   0.
3000001    1    5    0    0    0   1.1448749651E+01   2.4246525383E+01   9.8308442025E+01   1.0190445346E+02   1.0000000000E+00     0.000  -1.
3000022   2   5   0   0   0   5.3929466236E+00   2.3160110389E+00   3.0816277820E+01   3.1371217049E+01   2.5000000000E-01   1.019334E+01   0.
13    1    7    0    0    0  -4.2366161777E+00  -7.0072011032E+00  -5.1972702750E+00   9.6990941458E+00   1.0500000000E-01     0.000  -1.
-13    1    7    0    0    0  -8.2325334113E+00  -1.3741619451E+01  -1.0341737965E+01   1.9067492773E+01   1.0500000000E-01     0.000   1.
13    1    9    0    0    0   3.9601217896E+00   1.6675082037E+00   2.2641274647E+01   2.3045639302E+01   1.0500000000E-01     0.000   1.
-13    1    9    0    0    0   1.4328248340E+00   6.4850283517E-01   8.1750031733E+00   8.3255777466E+00   1.0500000000E-01     0.000  -1.
</event>
<event>
 13   1  9.2978750E-05  1.2500000E+02  7.5467720E-03  1.2380620E-01
   21   -1    0    0  502  501   0.0000000000E+00   0.0000000000E+00   4.0212579127E+02   4.0212579127E+02   0.0000000000E+00     0.000  -1.
   21   -1    0    0  501  502   0.0000000000E+00   0.0000000000E+00  -9.7140001583E+00   9.7140001583E+00   0.0000000000E+00     0.000  -1.
   25    2    1    2    0    0   0.0000000000E+00   0.0000000000E+00   3.9241179111E+02   4.1183979142E+02   1.2500000000E+02  8.433E-09  -1.
3000002    2    3    0    0    0   4.0383056129E+01  -4.4356311707E+01   2.4372030198E+02   2.5119287252E+02   1.0000000000E+01  4.763E-10   1.
3000002    2    3    0    0    0  -4.0383056129E+01   4.4356311707E+01   1.4869148913E+02   1.6064691890E+02   1.0000000000E+01  2.077E-10   1.
3000001    1    4    0    0    0   6.9639582196E+00  -4.4072611023E+00   2.4433143997E+01   2.5805022575E+01   1.0000000000E+00     0.000  -1.
3000022   2   4   0   0   0   3.3419097909E+01   -3.9949050605E+01   2.1928715798E+02   2.2538784995E+02   2.5000000000E-01   7.489207E-01   0.
3000001    1    5    0    0    0  -2.4292284169E+01   3.1042685462E+01   8.7072651232E+01   9.5584569797E+01   1.0000000000E+00     0.000   1.
3000022   2   5   0   0   0   -1.6090771960E+01   1.3313626244E+01   6.1618837902E+01   6.5062349100E+01   2.5000000000E-01   4.277017E-01   0.
13    1    7    0    0    0   1.6077930406E+01  -1.9228778203E+01   1.0523749998E+02   1.0818127464E+02   1.0500000000E-01     0.000   1.
-13    1    7    0    0    0   1.7341167504E+01  -2.0720272401E+01   1.1404965800E+02   1.1720657530E+02   1.0500000000E-01     0.000  -1.
13    1    9    0    0    0  -5.5133591742E+00   4.6333834284E+00   2.1226465898E+01   2.2415156723E+01   1.0500000000E-01     0.000  -1.
-13    1    9    0    0    0  -1.0577412785E+01   8.6802428160E+00   4.0392372004E+01   4.2647192378E+01   1.0500000000E-01     0.000   1.
</event>
<event>
 13   1  9.2978750E-05  1.2500000E+02  7.5467720E-03  1.2380620E-01
   21   -1    0    0  502  501   0.0000000000E+00   0.0000000000E+00   1.5263219788E+02   1.5263219788E+02   0.0000000000E+00     0.000   1.
   21   -1    0    0  501  502   0.0000000000E+00   0.0000000000E+00  -2.5592568634E+01   2.5592568634E+01   0.0000000000E+00     0.000   1.
   25    2    1    2    0    0   0.0000000000E+00   0.0000000000E+00   1.2703962925E+02   1.7822476651E+02   1.2500000000E+02  5.482E-09  -1.
3000002    2    3    0    0    0   4.0918756445E+01   4.2638332559E+01   8.8780111883E+01   1.0711806710E+02   1.0000000000E+01  1.402E-10   1.
3000002    2    3    0    0    0  -4.0918756445E+01  -4.2638332559E+01   3.8259517367E+01   7.1106699414E+01   1.0000000000E+01  3.623E-10   1.
3000001    1    4    0    0    0   3.1354617732E+00   2.2947606712E+00   1.0912340660E+01   1.1626531114E+01   1.0000000000E+00     0.000  -1.
3000022   2   4   0   0   0   3.7783294672E+01   4.0343571887E+01   7.7867771223E+01   9.5491535982E+01   2.5000000000E-01   7.273795E+00   0.
3000001    1    5    0    0    0  -2.4348796667E+01  -2.3482452972E+01   1.6207349579E+01   3.7522895372E+01   1.0000000000E+00     0.000   1.
3000022   2   5   0   0   0   -1.6569959778E+01   -1.9155879587E+01   2.2052167788E+01   3.3583804042E+01   2.5000000000E-01   1.851221E+00   0.
13    1    7    0    0    0   1.1766006852E+01   1.2549114479E+01   2.4316805295E+01   2.9786527764E+01   1.0500000000E-01     0.000  -1.
-13    1    7    0    0    0   2.6017287820E+01   2.7794457408E+01   5.3550965928E+01   6.5705008218E+01   1.0500000000E-01     0.000   1.
13    1    9    0    0    0  -6.9256161299E+00  -8.0474367411E+00   9.1660168047E+00   1.4026841624E+01   1.0500000000E-01     0.000   1.
-13    1    9    0    0    0  -9.6443436480E+00  -1.1108442845E+01   1.2886150983E+01   1.9556962418E+01   1.0500000000E-01     0.000  -1.
</event>
<event>
 13   1  9.2978750E-05  1.2500000E+02  7.5467720E-03  1.2380620E-01
   21   -1    0    0  502  501   0.0000000000E+00   0.0000000000E+00   2.5030376549E+02   2.5030376549E+02   0.0000000000E+00     0.000  -1.
   21   -1    0    0  501  502   0.0000000000E+00   0.0000000000E+00  -1.5606037698E+01   1.5606037698E+01   0.0000000000E+00     0.000  -1.
   25    2    1    2    0    0   0.0000000000E+00   0.0000000000E+00   2.3469772779E+02   2.6590980318E+02   1.2500000000E+02  2.626E-09  -1.
3000002    2    3    0    0    0  -7.4635657639E+00   3.7550444136E+01   2.2026406428E+02   2.2379007727E+02   1.0000000000E+01  1.725E-09  -1.
3000002    2    3    0    0    0   7.4635657639E+00  -3.7550444136E+01   1.4433663507E+01   4.2119725913E+01   1.0000000000E+01  1.472E-09  -1.
3000001    1    4    0    0    0  -6.3498104718E+00   2.5419792108E+01   1.7324866086E+02   1.7522152954E+02   1.0000000000E+00     0.000  -1.
3000022   2   4   0   0   0   -1.1137552921E+00   1.2130652028E+01   4.7015403419E+01   4.8568547725E+01   2.5000000000E-01   4.737665E+00   0.
3000001    1    5    0    0    0   3.7160637571E+00  -4.6018558064E+00   1.1874076076E-01   6.0000255064E+00   1.0000000000E+00     0.000   1.
3000022   2   5   0   0   0   3.7475020069E+00   -3.2948588330E+01   1.4314922746E+01   3.6119700406E+01   2.5000000000E-01   7.588828E+00   0.
13    1    7    0    0    0  -7.5562985021E-01   7.5846103867E+00   2.9368962256E+01   3.0342120232E+01   1.0500000000E-01     0.000   1.
-13    1    7    0    0    0  -3.5812544194E-01   4.5460416414E+00   1.7646441162E+01   1.8226427492E+01   1.0500000000E-01     0.000  -1.
13    1    9    0    0    0   1.8979334499E+00  -1.6232834902E+01   7.1033465760E+00   1.7820652006E+01   1.0500000000E-01     0.000   1.
-13    1    9    0    0    0   1.8495685570E+00  -1.6715753427E+01   7.2115761701E+00   1.8299048400E+01   1.0500000000E-01     0.000  -1.
</event>
<event>
 13   1  9.2978750E-05  1.2500000E+02  7.5467720E-03  1.2380620E-01
   21   -1    0    0  502  501   0.0000000000E+00   0.0000000000E+00   4.5606324998E+01   4.5606324998E+01   0.0000000000E+00     0.000  -1.
   21   -1    0    0  501  502   0.0000000000E+00   0.0000000000E+00  -8.5651496809E+01   8.5651496809E+01   0.0000000000E+00     0.000  -1.
   25    2    1    2    0    0   0.0000000000E+00   0.0000000000E+00  -4.0045171811E+01   1.3125782181E+02   1.2500000000E+02  2.814E-08  -1.
3000002    2    3    0    0    0   2.8901213770E+01   3.7058374584E+00   3.7080320987E+01   4.8207505568E+01   1.0000000000E+01  2.874E-10   1.
3000002    2    3    0    0    0  -2.8901213770E+01  -3.7058374584E+00  -7.7125492798E+01   8.3050316242E+01   1.0000000000E+01  1.001E-09   1.
3000001    1    4    0    0    0   2.1731534948E+01   6.6023867500E+00   2.4371636978E+01   3.3329083561E+01   1.0000000000E+00     0.000   1.
3000022   2   4   0   0   0   7.1696788211E+00   -2.8965492916E+00   1.2708684008E+01   1.4878422007E+01   2.5000000000E-01   3.384754E+00   0.
3000001    1    5    0    0    0  -1.2730007115E+01  -5.8163852594E+00  -2.8590737437E+01   3.1848291725E+01   1.0000000000E+00     0.000  -1.
3000022   2   5   0   0   0   -1.6171206655E+01   2.1105478011E+00   -4.8534755361E+01   5.1202024517E+01   2.5000000000E-01   7.643598E+00   0.
13    1    7    0    0    0   4.1907389724E+00  -1.7560069409E+00   7.4145119523E+00   8.6966583239E+00   1.0500000000E-01     0.000  -1.
-13    1    7    0    0    0   2.9789398487E+00  -1.1405423507E+00   5.2941720561E+00   6.1817636832E+00   1.0500000000E-01     0.000   1.
13    1    9    0    0    0  -8.0449812622E+00   1.0267710108E+00  -2.4336833167E+01   2.5652844985E+01   1.0500000000E-01     0.000  -1.
-13    1    9    0    0    0  -8.1262253926E+00   1.0837767902E+00  -2.4197922194E+01   2.5549179532E+01   1.0500000000E-01     0.000   1.
</event>
<event>
 13   1  9.2978750E-05  1.2500000E+02  7.5467720E-03  1.2380620E-01
   21   -1    0    0  502  501   0.0000000000E+00   0.0000000000E+00   5.8646335170E+01   5.8646335170E+01   0.0000000000E+00     0.000   1.
   21   -1    0    0  501  502   0.0000000000E+00   0.0000000000E+00  -6.6606890076E+01   6.6606890076E+01   0.0000000000E+00     0.000   1.
   25    2    1    2    0    0   0.0000000000E+00   0.0000000000E+00  -7.9605549063E+00   1.2525322525E+02   1.2500000000E+02  7.125E-08  -1.
3000002    2    3    0    0    0   2.6091586198E+01   3.9614866060E+01  -4.3508150812E+01   6.5138833812E+01   1.0000000000E+01  2.453E-09  -1.
3000002    2    3    0    0    0  -2.6091586198E+01  -3.9614866060E+01   3.5547595906E+01   6.0114391438E+01   1.0000000000E+01  4.426E-10  -1.
3000001    1    4    0    0    0   1.7903714001E+01   2.3551772746E+01  -2.0974191266E+01   3.6278722053E+01   1.0000000000E+00     0.000  -1.
3000022   2   4   0   0   0   8.1878721967E+00   1.6063093314E+01   -2.2533959546E+01   2.8860111759E+01   2.5000000000E-01   1.909829E+00   0.
3000001    1    5    0    0    0  -2.0414050846E+01  -3.6130766835E+01   3.2794501900E+01   5.2902222438E+01   1.0000000000E+00     0.000  -1.
3000022   2   5   0   0   0   -5.6775353514E+00   -3.4840992253E+00   2.7530940062E+00   7.2121690000E+00   2.5000000000E-01   7.972341E-01   0.
13    1    7    0    0    0   5.9611599221E+00   1.1618341829E+01  -1.6345338337E+01   2.0921338504E+01   1.0500000000E-01     0.000  -1.
-13    1    7    0    0    0   2.2267122745E+00   4.4447514850E+00  -6.1886212091E+00   7.9387732545E+00   1.0500000000E-01     0.000   1.
13    1    9    0    0    0  -3.0579513435E+00  -1.7975485976E+00   1.4659345047E+00   3.8395620000E+00   1.0500000000E-01     0.000   1.
-13    1    9    0    0    0  -2.6195840079E+00  -1.6865506278E+00   1.2871595015E+00   3.3726070000E+00   1.0500000000E-01     0.000  -1.
</event>
<event>
 13   1  9.2978750E-05  1.2500000E+02  7.5467720E-03  1.2380620E-01
   21   -1    0    0  502  501   0.0000000000E+00   0.0000000000E+00   5.6965976241E+01   5.6965976241E+01   0.0000000000E+00     0.000  -1.
   21   -1    0    0  501  502   0.0000000000E+00   0.0000000000E+00  -6.8571632714E+01   6.8571632714E+01   0.0000000000E+00     0.000  -1.
   25    2    1    2    0    0   0.0000000000E+00   0.0000000000E+00  -1.1605656473E+01   1.2553760896E+02   1.2500000000E+02  3.511E-08  -1.
3000002    2    3    0    0    0  -2.1752512284E+01   1.3782496484E+01  -6.2107494652E+01   6.7974038367E+01   1.0000000000E+01  6.342E-11  -1.
3000002    2    3    0    0    0   2.1752512284E+01  -1.3782496484E+01   5.0501838179E+01   5.7563570593E+01   1.0000000000E+01  2.039E-10  -1.
3000001    1    4    0    0    0  -1.5973662136E+00   5.4515630119E+00  -1.1450700367E+01   1.2821452998E+01   1.0000000000E+00     0.000  -1.
3000022   2   4   0   0   0   -2.0155146071E+01   8.3309334720E+00   -5.0656794285E+01   5.5152585369E+01   2.5000000000E-01   3.379523E+00   0.
3000001    1    5    0    0    0   1.4902398318E+01  -4.8030318146E+00   2.3097471435E+01   2.7922101943E+01   1.0000000000E+00     0.000   1.
3000022   2   5   0   0   0   6.8501139663E+00   -8.9794646694E+00   2.7404366744E+01   2.9641468650E+01   2.5000000000E-01   2.426135E+00   0.
13    1    7    0    0    0  -1.2871498348E+01   5.3701885114E+00  -3.2304092346E+01   3.5186358175E+01   1.0500000000E-01     0.000   1.
-13    1    7    0    0    0  -7.2836477227E+00   2.9607449607E+00  -1.8352701940E+01   1.9966227194E+01   1.0500000000E-01     0.000  -1.
13    1    9    0    0    0   2.2505196716E+00  -2.8748964242E+00   8.7981239912E+00   9.5261681177E+00   1.0500000000E-01     0.000   1.
-13    1    9    0    0    0   4.5995942946E+00  -6.1045682452E+00   1.8606242753E+01   2.0115300532E+01   1.0500000000E-01     0.000  -1.
</event>
<event>
 13   1  9.2978750E-05  1.2500000E+02  7.5467720E-03  1.2380620E-01
   21   -1    0    0  502  501   0.0000000000E+00   0.0000000000E+00   1.6642740153E+01   1.6642740153E+01   0.0000000000E+00     0.000   1.
   21   -1    0    0  501  502   0.0000000000E+00   0.0000000000E+00  -2.3471195032E+02   2.3471195032E+02   0.0000000000E+00     0.000   1.
   25    2    1    2    0    0   0.0000000000E+00   0.0000000000E+00  -2.1806921017E+02   2.5135469047E+02   1.2500000000E+02  8.350E-09  -1.
3000002    2    3    0    0    0   4.0928085577E+01   4.5945485871E+01  -1.1806193051E+02   1.3350923300E+02   1.0000000000E+01  1.369E-11   1.
3000002    2    3    0    0    0  -4.0928085577E+01  -4.5945485871E+01  -1.0000727966E+02   1.1784545747E+02   1.0000000000E+01  8.662E-10   1.
3000001    1    4    0    0    0   1.5275623284E+01   2.4523379492E+01  -5.5794989172E+01   6.2839650103E+01   1.0000000000E+00     0.000  -1.
3000022   2   4   0   0   0   2.5652462293E+01   2.1422106380E+01   -6.2266941340E+01   7.0669582900E+01   2.5000000000E-01   7.929197E-01   0.
3000001    1    5    0    0    0  -2.2226844643E+01  -1.8862679622E+01  -4.1684390874E+01   5.0876534354E+01   1.0000000000E+00     0.000  -1.
3000022   2   5   0   0   0   -1.8701240934E+01   -2.7082806249E+01   -5.8322888784E+01   6.6968923113E+01   2.5000000000E-01   2.126948E+00   0.
13    1    7    0    0    0   6.7469609140E+00   5.6079072272E+00  -1.6400865980E+01   1.8600256314E+01   1.0500000000E-01     0.000   1.
-13    1    7    0    0    0   1.8905501379E+01   1.5814199152E+01  -4.5866075360E+01   5.2069326586E+01   1.0500000000E-01     0.000  -1.
13    1    9    0    0    0  -5.3507039172E+00  -7.7501657443E+00  -1.6774673339E+01   1.9237873898E+01   1.0500000000E-01     0.000   1.
-13    1    9    0    0    0  -1.3350537017E+01  -1.9332640505E+01  -4.1548215446E+01   4.7731049216E+01   1.0500000000E-01     0.000  -1.
</event>
<event>
 13   1  9.2978750E-05  1.2500000E+02  7.5467720E-03  1.2380620E-01
   21   -1    0    0  502  501   0.0000000000E+00   0.0000000000E+00   6.7201914075E+02   6.7201914075E+02   0.0000000000E+00     0.000  -1.
   21   -1    0    0  501  502   0.0000000000E+00   0.0000000000E+00  -5.8127064590E+00   5.8127064590E+00   0.0000000000E+00     0.000  -1.
   25    2    1    2    0    0   0.0000000000E+00   0.0000000000E+00   6.6620643429E+02   6.7783184721E+02   1.2500000000E+02  1.541E-08  -1.
3000002    2    3    0    0    0   4.9180724271E+01  -7.6999970099E+00   5.3073026221E+02   5.3315349087E+02   1.0000000000E+01  5.172E-10  -1.
3000002    2    3    0    0    0  -4.9180724271E+01   7.6999970099E+00   1.3547617208E+02   1.4467835634E+02   1.0000000000E+01  2.264E-10  -1.
3000001    1    4    0    0    0   3.1336526825E+01  -6.3722963197E+00   2.9014105304E+02   2.9189966553E+02   1.0000000000E+00     0.000  -1.
3000022   2   4   0   0   0   1.7844197446E+01   -1.3277006902E+00   2.4058920917E+02   2.4125382534E+02   2.5000000000E-01   2.414513E+00   0.
3000001    1    5    0    0    0  -3.8389334708E+01   9.9271800149E+00   1.0939897759E+02   1.1636763390E+02   1.0000000000E+00     0.000  -1.
3000022   2   5   0   0   0   -1.0791389563E+01   -2.2271830050E+00   2.6077194488E+01   2.8310722442E+01   2.5000000000E-01   2.247701E+01   0.
13    1    7    0    0    0   7.6976636183E+00  -5.0896560005E-01   1.0350890349E+02   1.0379603653E+02   1.0500000000E-01     0.000  -1.
-13    1    7    0    0    0   1.0146533828E+01  -8.1873509020E-01   1.3708030568E+02   1.3745778881E+02   1.0500000000E-01     0.000   1.
13    1    9    0    0    0  -5.9134783787E+00  -1.1913706236E+00   1.4120118936E+01   1.5355043936E+01   1.0500000000E-01     0.000   1.
-13    1    9    0    0    0  -4.8779111846E+00  -1.0358123814E+00   1.1957075552E+01   1.2955678506E+01   1.0500000000E-01     0.000  -1.
</event>
<event>
 13   1  9.2978750E-05  1.2500000E+02  7.5467720E-03  1.2380620E-01
   21   -1    0    0  502  501   0.0000000000E+00   0.0000000000E+00   3.2283649320E+01   3.2283649320E+01   0.0000000000E+00     0.000  -1.
   21   -1    0    0  501  502   0.0000000000E+00   0.0000000000E+00  -1.2099778316E+02   1.2099778316E+02   0.0000000000E+00     0.000  -1.
   25    2    1    2    0    0   0.0000000000E+00   0.0000000000E+00  -8.8714133839E+01   1.5328143248E+02   1.2500000000E+02  5.251E-08  -1.
3000002    2    3    0    0    0  -6.4611579333E+00  -4.9754572790E+01  -3.3163504686E-01   5.1160278119E+01   1.0000000000E+01  8.504E-10   1.
3000002    2    3    0    0    0   6.4611579333E+00   4.9754572790E+01  -8.8382498792E+01   1.0212115436E+02   1.0000000000E+01  9.833E-10   1.
3000001    1    4    0    0    0  -1.8051361623E+00  -4.1193520259E+01  -1.8879294367E+00   4.1288362833E+01   1.0000000000E+00     0.000   1.
3000022   2   4   0   0   0   -4.6560217710E+00   -8.5610525309E+00   1.5562943898E+00   9.8719152851E+00   2.5000000000E-01   5.856292E+00   0.
3000001    1    5    0    0    0  -1.7516884137E+00   2.7166926733E+00  -5.0846633243E+00   6.1075881083E+00   1.0000000000E+00     0.000  -1.
3000022   2   5   0   0   0   8.2128463470E+00   4.7037880117E+01   -8.3297835468E+01   9.6013566253E+01   2.5000000000E-01   2.905348E+00   0.
13    1    7    0    0    0  -1.6646658640E+00  -2.9969259106E+00   5.9612534453E-01   3.4812451478E+00   1.0500000000E-01     0.000  -1.
-13    1    7    0    0    0  -2.9913559069E+00  -5.5641266203E+00   9.6016904526E-01   6.3906701373E+00   1.0500000000E-01     0.000   1.
13    1    9    0    0    0   2.0711875092E+00   1.2023715500E+01  -2.1304080883E+01   2.4550650488E+01   1.0500000000E-01     0.000  -1.
-13    1    9    0    0    0   6.1416588378E+00   3.5014164616E+01  -6.1993754584E+01   7.1462915764E+01   1.0500000000E-01     0.000   1.
</event>
<event>
 13   1  9.2978750E-05  1.2500000E+02  7.5467720E-03  1.2380620E-01
   21   -1    0    0  502  501   0.0000000000E+00   0.0000000000E+00   4.2645916537E+01   4.2645916537E+01   0.0000000000E+00     0.000  -1.
   21   -1    0    0  501  502   0.0000000000E+00   0.0000000000E+00  -9.1597280987E+01   9.1597280987E+01   0.0000000000E+00     0.000  -1.
   25    2    1    2    0    0   0.0000000000E+00   0.0000000000E+00  -4.8951364450E+01   1.3424319752E+02   1.2500000000E+02  2.351E-08  -1.
3000002    2    3    0    0    0   5.2752383809E+00  -3.7700883787E+01   2.7663963384E+01   4.8109039154E+01   1.0000000000E+01  2.482E-10   1.
3000002    2    3    0    0    0  -5.2752383809E+00   3.7700883787E+01  -7.6615327834E+01   8.6134158366E+01   1.0000000000E+01  8.338E-10   1.
3000001    1    4    0    0    0   3.6751866856E-01  -2.6132167327E+01   2.2572995391E+01   3.4548015285E+01   1.0000000000E+00     0.000   1.
3000022   2   4   0   0   0   4.9077197123E+00   -1.1568716460E+01   5.0909679928E+00   1.3561023870E+01   2.5000000000E-01   3.379977E-01   0.
3000001    1    5    0    0    0   1.5871926989E+00   2.6224609817E+00  -1.0383064661E+01   1.0872189937E+01   1.0000000000E+00     0.000  -1.
3000022   2   5   0   0   0   -6.8624310798E+00   3.5078422805E+01   -6.6232263173E+01   7.5261968429E+01   2.5000000000E-01   4.363378E-01   0.
13    1    7    0    0    0   3.0144907197E+00  -6.9504345116E+00   3.0860097555E+00   8.1810864444E+00   1.0500000000E-01     0.000  -1.
-13    1    7    0    0    0   1.8932289927E+00  -4.6182819480E+00   2.0049582373E+00   5.3799374256E+00   1.0500000000E-01     0.000   1.
13    1    9    0    0    0  -1.7286240385E+00   8.9379343546E+00  -1.6914623436E+01   1.9209120817E+01   1.0500000000E-01     0.000   1.
-13    1    9    0    0    0  -5.1338070414E+00   2.6140488450E+01  -4.9317639737E+01   5.6052847612E+01   1.0500000000E-01     0.000  -1.
</event>
<event>
 13   1  9.2978750E-05  1.2500000E+02  7.5467720E-03  1.2380620E-01
   21   -1    0    0  502  501   0.0000000000E+00   0.0000000000E+00   4.8630629312E+01   4.8630629312E+01   0.0000000000E+00     0.000   1.
   21   -1    0    0  501  502   0.0000000000E+00   0.0000000000E+00  -8.0324891025E+01   8.0324891025E+01   0.0000000000E+00     0.000   1.
   25    2    1    2    0    0   0.0000000000E+00   0.0000000000E+00  -3.1694261712E+01   1.2895552034E+02   1.2500000000E+02  8.457E-08  -1.
3000002    2    3    0    0    0  -1.1031665167E+01  -3.0243872701E+01   3.8447748926E+01   5.1133344011E+01   1.0000000000E+01  6.754E-10   1.
3000002    2    3    0    0    0   1.1031665167E+01   3.0243872701E+01  -7.0142010638E+01   7.7822176329E+01   1.0000000000E+01  1.366E-09   1.
3000001    1    4    0    0    0  -1.1148178635E+01  -3.0526172608E+01   3.5420857928E+01   4.8080830664E+01   1.0000000000E+00     0.000   1.
3000022   2   4   0   0   0   1.1651346796E-01   2.8229990671E-01   3.0268909972E+00   3.0525133471E+00   2.5000000000E-01   2.566828E+00   0.
3000001    1    5    0    0    0   1.2823278752E+01   2.6842245024E+01  -6.0108458759E+01   6.7074357323E+01   1.0000000000E+00     0.000   1.
3000022   2   5   0   0   0   -1.7916135852E+00   3.4016276769E+00   -1.0033551878E+01   1.0747819006E+01   2.5000000000E-01   1.003312E+00   0.
13    1    7    0    0    0  -1.0521654350E-02   1.2908736235E-01   1.1083479606E+00   1.1208186535E+00   1.0500000000E-01     0.000  -1.
-13    1    7    0    0    0   1.2703512231E-01   1.5321254436E-01   1.9185430366E+00   1.9316946936E+00   1.0500000000E-01     0.000   1.
13    1    9    0    0    0  -8.2011020425E-01   1.5065871804E+00  -4.3050659380E+00   4.6354075776E+00   1.0500000000E-01     0.000   1.
-13    1    9    0    0    0  -9.7150338097E-01   1.8950404965E+00  -5.7284859402E+00   6.1124114284E+00   1.0500000000E-01     0.000  -1.
</event>
<event>
 13   1  9.2978750E-05  1.2500000E+02  7.5467720E-03  1.2380620E-01
   21   -1    0    0  502  501   0.0000000000E+00   0.0000000000E+00   7.7798891606E+01   7.7798891606E+01   0.0000000000E+00     0.000  -1.
   21   -1    0    0  501  502   0.0000000000E+00   0.0000000000E+00  -5.0209584216E+01   5.0209584216E+01   0.0000000000E+00     0.000  -1.
   25    2    1    2    0    0   0.0000000000E+00   0.0000000000E+00   2.7589307390E+01   1.2800847582E+02   1.2500000000E+02  6.731E-09  -1.
3000002    2    3    0    0    0  -4.3698059861E+01  -4.2962570455E+01   6.4851403160E+00   6.2428839014E+01   1.0000000000E+01  1.170E-09   1.
3000002    2    3    0    0    0   4.3698059861E+01   4.2962570455E+01   2.1104167074E+01   6.5579636806E+01   1.0000000000E+01  2.829E-10   1.
3000001    1    4    0    0    0  -4.1737929240E+01  -4.1141973021E+01   8.2810247517E+00   5.9197061179E+01   1.0000000000E+00     0.000  -1.
3000022   2   4   0   0   0   -1.9601306205E+00   -1.8205974348E+00   -1.7958844357E+00   3.2317778351E+00   2.5000000000E-01   3.099139E+00   0.
3000001    1    5    0    0    0   1.0896228292E+01   9.0818588973E+00   9.2175999846E+00   1.6946153000E+01   1.0000000000E+00     0.000  -1.
3000022   2   5   0   0   0   3.2801831569E+01   3.3880711558E+01   1.1886567089E+01   4.8633483806E+01   2.5000000000E-01   1.209415E+01   0.
13    1    7    0    0    0  -7.2607631376E-01  -6.6996038613E-01  -5.9377077730E-01   1.1574206100E+00   1.0500000000E-01     0.000  -1.
-13    1    7    0    0    0  -1.2340543067E+00  -1.1506370486E+00  -1.2021136584E+00   2.0743572251E+00   1.0500000000E-01     0.000   1.
13    1    9    0    0    0   9.3257662233E+00   9.6612862737E+00   3.3474817457E+00   1.3839328999E+01   1.0500000000E-01     0.000   1.
-13    1    9    0    0    0   2.3476065345E+01   2.4219425284E+01   8.5390853437E+00   3.4794154807E+01   1.0500000000E-01     0.000  -1.
</event>
<event>
 13   1  9.2978750E-05  1.2500000E+02  7.5467720E-03  1.2380620E-01
   21   -1    0    0  502  501   0.0000000000E+00   0.0000000000E+00   4.6818294477E+01   4.6818294477E+01   0.0000000000E+00     0.000   1.
   21   -1    0    0  501  502   0.0000000000E+00   0.0000000000E+00  -8.3434265251E+01   8.3434265251E+01   0.0000000000E+00     0.000   1.
   25    2    1    2    0    0   0.0000000000E+00   0.0000000000E+00  -3.6615970774E+01   1.3025255973E+02   1.2500000000E+02  1.514E-08  -1.
3000002    2    3    0    0    0  -5.7907141664E+01   1.8318416946E+01  -7.0152260104E+00   6.1951713867E+01   1.0000000000E+01  3.697E-10   1.
3000002    2    3    0    0    0   5.7907141664E+01  -1.8318416946E+01  -2.9600744764E+01   6.8300845863E+01   1.0000000000E+01  2.852E-09   1.
3000001    1    4    0    0    0  -2.7887535285E+01   1.0734627137E+01  -8.0738379149E+00   3.0969883802E+01   1.0000000000E+00     0.000   1.
3000022   2   4   0   0   0   -3.0019606378E+01   7.5837898097E+00   1.0586119046E+00   3.0981830065E+01   2.5000000000E-01   1.469672E+01   0.
3000001    1    5    0    0    0   1.0151269546E+01  -6.8176895981E+00  -7.9481873533E+00   1.4618578832E+01   1.0000000000E+00     0.000  -1.
3000022   2   5   0   0   0   4.7755872117E+01   -1.1500727348E+01   -2.1652557410E+01   5.3682267032E+01   2.5000000000E-01   3.061409E+00   0.
13    1    7    0    0    0  -1.0237734292E+01   2.5529027278E+00   4.0510516988E-01   1.0559528918E+01   1.0500000000E-01     0.000  -1.
-13    1    7    0    0    0  -1.9781872086E+01   5.0308870819E+00   6.5350673469E-01   2.0422301146E+01   1.0500000000E-01     0.000   1.
13    1    9    0    0    0   2.2547630509E+01  -5.4720867863E+00  -1.0168852904E+01   2.5332902909E+01   1.0500000000E-01     0.000  -1.
-13    1    9    0    0    0   2.5208241608E+01  -6.0286405620E+00  -1.1483704506E+01   2.8349364123E+01   1.0500000000E-01     0.000   1.
</event>
<event>
 13   1  9.2978750E-05  1.2500000E+02  7.5467720E-03  1.2380620E-01
   21   -1    0    0  502  501   0.0000000000E+00   0.0000000000E+00   3.1305114468E+02   3.1305114468E+02   0.0000000000E+00     0.000   1.
   21   -1    0    0  501  502   0.0000000000E+00   0.0000000000E+00  -1.2477993026E+01   1.2477993026E+01   0.0000000000E+00     0.000   1.
   25    2    1    2    0    0   0.0000000000E+00   0.0000000000E+00   3.0057315166E+02   3.2552913771E+02   1.2500000000E+02  1.157E-08  -1.
3000002    2    3    0    0    0  -5.7564685690E+01  -1.7646632432E+01   1.1523536623E+02   1.3040048430E+02   1.0000000000E+01  2.754E-11  -1.
3000002    2    3    0    0    0   5.7564685690E+01   1.7646632432E+01   1.8533778543E+02   1.9512865341E+02   1.0000000000E+01  1.999E-11  -1.
3000001    1    4    0    0    0  -2.8963461492E+01  -5.0640878228E+00   6.3030193085E+01   6.9558121937E+01   1.0000000000E+00     0.000  -1.
3000022   2   4   0   0   0   -2.8601224198E+01   -1.2582544609E+01   5.2205173145E+01   6.0842362360E+01   2.5000000000E-01   6.675481E+00   0.
3000001    1    5    0    0    0   2.9507372114E+01   4.5372065027E+00   8.3258143301E+01   8.8454449734E+01   1.0000000000E+00     0.000   1.
3000022   2   5   0   0   0   2.8057313576E+01   1.3109425929E+01   1.0207964213E+02   1.0667420368E+02   2.5000000000E-01   7.140435E+00   0.
13    1    7    0    0    0  -8.8459488975E+00  -3.8672459222E+00   1.6213686782E+01   1.8870640343E+01   1.0500000000E-01     0.000   1.
-13    1    7    0    0    0  -1.9755275300E+01  -8.7152986867E+00   3.5991486364E+01   4.1971722017E+01   1.0500000000E-01     0.000  -1.
13    1    9    0    0    0   1.8277779880E+01   8.6020008425E+00   6.6580255891E+01   6.9577389685E+01   1.0500000000E-01     0.000  -1.
-13    1    9    0    0    0   9.7795336956E+00   4.5074250865E+00   3.5499386238E+01   3.7096813993E+01   1.0500000000E-01     0.000   1.
</event>
<event>
 13   1  9.2978750E-05  1.2500000E+02  7.5467720E-03  1.2380620E-01
   21   -1    0    0  502  501   0.0000000000E+00   0.0000000000E+00   8.1450060135E+01   8.1450060135E+01   0.0000000000E+00     0.000  -1.
   21   -1    0    0  501  502   0.0000000000E+00   0.0000000000E+00  -4.7958835064E+01   4.7958835064E+01   0.0000000000E+00     0.000  -1.
   25    2    1    2    0    0   0.0000000000E+00   0.0000000000E+00   3.3491225071E+01   1.2940889520E+02   1.2500000000E+02  2.347E-08  -1.
3000002    2    3    0    0    0  -1.0259152341E+01  -9.7491969605E-01   7.9719118587E+01   8.1002089748E+01   1.0000000000E+01  9.992E-11   1.
3000002    2    3    0    0    0   1.0259152341E+01   9.7491969605E-01  -4.6227893516E+01   4.8406805452E+01   1.0000000000E+01  1.053E-09   1.
3000001    1    4    0    0    0  -1.1524019437E+00   1.1843827915E-01   1.1896232855E+00   1.9383656588E+00   1.0000000000E+00     0.000  -1.
3000022   2   4   0   0   0   -9.1067503973E+00   -1.0933579752E+00   7.8529495302E+01   7.9063724089E+01   2.5000000000E-01   4.527686E+00   0.
3000001    1    5    0    0    0   8.6819579479E+00  -1.5364262140E+00  -4.3412464097E+01   4.4310033156E+01   1.0000000000E+00     0.000   1.
3000022   2   5   0   0   0   1.5771943932E+00   2.5113459101E+00   -2.8154294192E+00   4.0967722964E+00   2.5000000000E-01   8.756676E-01   0.
13    1    7    0    0    0  -2.4352636713E+00  -3.1839320149E-01   2.0835241975E+01   2.0979757304E+01   1.0500000000E-01     0.000   1.
-13    1    7    0    0    0  -6.6714867261E+00  -7.7496477370E-01   5.7694253326E+01   5.8083966784E+01   1.0500000000E-01     0.000  -1.
13    1    9    0    0    0   5.8582040797E-01   1.0299117754E+00  -1.0761690128E+00   1.6040787261E+00   1.0500000000E-01     0.000  -1.
-13    1    9    0    0    0   9.9137398526E-01   1.4814341347E+00  -1.7392604064E+00   2.4926935703E+00   1.0500000000E-01     0.000   1.
</event>
<event>
 13   1  9.2978750E-05  1.2500000E+02  7.5467720E-03  1.2380620E-01
   21   -1    0    0  502  501   0.0000000000E+00   0.0000000000E+00   6.9042869051E+01   6.9042869051E+01   0.0000000000E+00     0.000  -1.
   21   -1    0    0  501  502   0.0000000000E+00   0.0000000000E+00  -5.6577167978E+01   5.6577167978E+01   0.0000000000E+00     0.000  -1.
   25    2    1    2    0    0   0.0000000000E+00   0.0000000000E+00   1.2465701073E+01   1.2562003703E+02   1.2500000000E+02  5.384E-08  -1.
3000002    2    3    0    0    0   1.9047138406E+01  -5.2020484620E+01   3.3521283027E+01   6.5517941950E+01   1.0000000000E+01  1.145E-09   1.
3000002    2    3    0    0    0  -1.9047138406E+01   5.2020484620E+01  -2.1055581954E+01   6.0102095080E+01   1.0000000000E+01  3.172E-10   1.
3000001    1    4    0    0    0   1.6625439257E+01  -4.7503771943E+01   2.6698000627E+01   5.6980670554E+01   1.0000000000E+00     0.000   1.
3000022   2   4   0   0   0   2.4216991489E+00   -4.5167126768E+00   6.8232824000E+00   8.5372713956E+00   2.5000000000E-01   1.475703E+01   0.
3000001    1    5    0    0    0  -3.6440302663E+00   1.8321051481E+01  -1.1029021098E+01   2.1715874155E+01   1.0000000000E+00     0.000  -1.
3000022   2   5   0   0   0   -1.5403108140E+01   3.3699433139E+01   -1.0026560856E+01   3.8386220925E+01   2.5000000000E-01   1.161406E+01   0.
13    1    7    0    0    0   1.1634043414E+00  -2.2204635833E+00   3.2320009574E+00   4.0915551291E+00   1.0500000000E-01     0.000  -1.
-13    1    7    0    0    0   1.2582948075E+00  -2.2962490935E+00   3.5912814426E+00   4.4457162665E+00   1.0500000000E-01     0.000   1.
13    1    9    0    0    0  -8.4590287848E+00   1.8602680249E+01  -5.5851994721E+00   2.1185380775E+01   1.0500000000E-01     0.000  -1.
-13    1    9    0    0    0  -6.9440793549E+00   1.5096752890E+01  -4.4413613838E+00   1.7200840150E+01   1.0500000000E-01     0.000   1.
</event>
<event>
 13   1  9.2978750E-05  1.2500000E+02  7.5467720E-03  1.2380620E-01
   21   -1    0    0  502  501   0.0000000000E+00   0.0000000000E+00   5.1297619093E+01   5.1297619093E+01   0.0000000000E+00     0.000  -1.
   21   -1    0    0  501  502   0.0000000000E+00   0.0000000000E+00  -7.6148758345E+01   7.6148758345E+01   0.0000000000E+00     0.000  -1.
   25    2    1    2    0    0   0.0000000000E+00   0.0000000000E+00  -2.4851139251E+01   1.2744637744E+02   1.2500000000E+02  8.745E-08  -1.
3000002    2    3    0    0    0  -5.1508561763E+01  -5.5775483698E+00   2.1726392215E+01   5.7063798501E+01   1.0000000000E+01  7.399E-10  -1.
3000002    2    3    0    0    0   5.1508561763E+01   5.5775483698E+00  -4.6577531466E+01   7.0382578939E+01   1.0000000000E+01  7.806E-10  -1.
3000001    1    4    0    0    0  -2.7901859296E+01   1.9469842318E+00   1.1452898141E+01   3.0240260839E+01   1.0000000000E+00     0.000  -1.
3000022   2   4   0   0   0   -2.3606702467E+01   -7.5245326016E+00   1.0273494074E+01   2.6823537662E+01   2.5000000000E-01   1.305821E+01   0.
3000001    1    5    0    0    0   4.5811069370E+00   2.1434679699E+00  -1.8927686041E+00   5.4921369880E+00   1.0000000000E+00     0.000  -1.
3000022   2   5   0   0   0   4.6927454826E+01   3.4340803999E+00   -4.4684762862E+01   6.4890441951E+01   2.5000000000E-01   6.077390E-01   0.
13    1    7    0    0    0  -7.9369535890E+00  -2.5852878915E+00   3.4480276523E+00   9.0321019396E+00   1.0500000000E-01     0.000  -1.
-13    1    7    0    0    0  -1.5669748878E+01  -4.9392447101E+00   6.8254664215E+00   1.7791435723E+01   1.0500000000E-01     0.000   1.
13    1    9    0    0    0   1.7088965156E+01   1.3087000441E+00  -1.6289129761E+01   2.3645130561E+01   1.0500000000E-01     0.000   1.
-13    1    9    0    0    0   2.9838489670E+01   2.1253803558E+00  -2.8395633101E+01   4.1245311390E+01   1.0500000000E-01     0.000  -1.
</event>
<event>
 13   1  9.2978750E-05  1.2500000E+02  7.5467720E-03  1.2380620E-01
   21   -1    0    0  502  501   0.0000000000E+00   0.0000000000E+00   1.7415109341E+02   1.7415109341E+02   0.0000000000E+00     0.000  -1.
   21   -1    0    0  501  502   0.0000000000E+00   0.0000000000E+00  -2.2430235283E+01   2.2430235283E+01   0.0000000000E+00     0.000  -1.
   25    2    1    2    0    0   0.0000000000E+00   0.0000000000E+00   1.5172085813E+02   1.9658132870E+02   1.2500000000E+02  5.099E-08  -1.
3000002    2    3    0    0    0   1.2530517334E+01   5.8660840668E+01   5.3171603373E+01   8.0779499242E+01   1.0000000000E+01  1.039E-09   1.
3000002    2    3    0    0    0  -1.2530517334E+01  -5.8660840668E+01   9.8549254757E+01   1.1580182946E+02   1.0000000000E+01  3.129E-10   1.
3000001    1    4    0    0    0   1.1054248262E+01   4.1918127871E+01   3.2815155746E+01   5.4379778369E+01   1.0000000000E+00     0.000   1.
3000022   2   4   0   0   0   1.4762690724E+00   1.6742712798E+01   2.0356447627E+01   2.6399720874E+01   2.5000000000E-01   6.100203E+00   0.
3000001    1    5    0    0    0  -7.3529344490E+00  -3.4088501495E+01   6.6396591644E+01   7.5003992968E+01   1.0000000000E+00     0.000   1.
3000022   2   5   0   0   0   -5.1775828855E+00   -2.4572339173E+01   3.2152663112E+01   4.0797836489E+01   2.5000000000E-01   9.256044E+00   0.
13    1    7    0    0    0   4.7956831921E-01   5.5229543809E+00   6.6328521658E+00   8.6451583977E+00   1.0500000000E-01     0.000   1.
-13    1    7    0    0    0   9.9670075318E-01   1.1219758417E+01   1.3723595461E+01   1.7754562476E+01   1.0500000000E-01     0.000  -1.
13    1    9    0    0    0  -2.6197164245E+00  -1.2513277741E+01   1.6475784794E+01   2.0854437024E+01   1.0500000000E-01     0.000   1.
-13    1    9    0    0    0  -2.5578664610E+00  -1.2059061432E+01   1.5676878318E+01   1.9943399466E+01   1.0500000000E-01     0.000  -1.
</event>
<event>
 13   1  9.2978750E-05  1.2500000E+02  7.5467720E-03  1.2380620E-01
   21   -1    0    0  502  501   0.0000000000E+00   0.0000000000E+00   2.2044606925E+02   2.2044606925E+02   0.0000000000E+00     0.000  -1.
   21   -1    0    0  501  502   0.0000000000E+00   0.0000000000E+00  -1.7719753467E+01   1.7719753467E+01   0.0000000000E+00     0.000  -1.
   25    2    1    2    0    0   0.0000000000E+00   0.0000000000E+00   2.0272631579E+02   2.3816582272E+02   1.2500000000E+02  1.704E-08  -1.
3000002    2    3    0    0    0   5.0701554587E+01  -4.1691016317E+00   1.6786481374E+02   1.7568900005E+02   1.0000000000E+01  8.859E-10   1.
3000002    2    3    0    0    0  -5.0701554587E+01   4.1691016317E+00   3.4861502049E+01   6.2476822671E+01   1.0000000000E+01  8.627E-10   1.
3000001    1    4    0    0    0   2.8919737822E+01   1.6114619633E+00   1.0407614101E+02   1.0803606422E+02   1.0000000000E+00     0.000   1.
3000022   2   4   0   0   0   2.1781816765E+01   -5.7805635950E+00   6.3788672735E+01   6.7652935829E+01   2.5000000000E-01   1.926802E+01   0.
3000001    1    5    0    0    0  -5.0554539326E+00  -2.2075649593E+00   5.3420853107E+00   7.7439546087E+00   1.0000000000E+00     0.000  -1.
3000022   2   5   0   0   0   -4.5646100654E+01   6.3766665910E+00   2.9519416738E+01   5.4732868062E+01   2.5000000000E-01   2.241139E+00   0.
13    1    7    0    0    0   1.4285089011E+01  -3.7343122406E+00   4.1820073025E+01   4.4350179129E+01   1.0500000000E-01     0.000  -1.
-13    1    7    0    0    0   7.4967277547E+00  -2.0462513544E+00   2.1968599710E+01   2.3302756700E+01   1.0500000000E-01     0.000   1.
13    1    9    0    0    0  -1.0978509625E+01   1.5532776646E+00   7.1066534606E+00   1.3170265506E+01   1.0500000000E-01     0.000  -1.
-13    1    9    0    0    0  -3.4667591029E+01   4.8233889265E+00   2.2412763278E+01   4.1562602557E+01   1.0500000000E-01     0.000   1.
</event>
<event>
 13   1  9.2978750E-05  1.2500000E+02  7.5467720E-03  1.2380620E-01
   21   -1    0    0  502  501   0.0000000000E+00   0.0000000000E+00   3.5331453565E+00   3.5331453565E+00   0.0000000000E+00     0.000  -1.
   21   -1    0    0  501  502   0.0000000000E+00   0.0000000000E+00  -1.1056012719E+03   1.1056012719E+03   0.0000000000E+00     0.000  -1.
   25    2    1    2    0    0   0.0000000000E+00   0.0000000000E+00  -1.1020681266E+03   1.1091344173E+03   1.2500000000E+02  2.898E-08  -1.
3000002    2    3    0    0    0  -3.0154771921E+01   3.9785596159E+01  -2.2938709385E+02   2.3496945069E+02   1.0000000000E+01  2.957E-10  -1.
3000002    2    3    0    0    0   3.0154771921E+01  -3.9785596159E+01  -8.7268103275E+02   8.7416496661E+02   1.0000000000E+01  1.035E-09  -1.
3000001    1    4    0    0    0  -1.2306286107E+01   1.9311615843E+01  -1.2634439205E+02   1.2840673108E+02   1.0000000000E+00     0.000   1.
3000022   2   4   0   0   0   -1.7848485814E+01   2.0473980315E+01   -1.0304270180E+02   1.0656271961E+02   2.5000000000E-01   1.017999E+01   0.
3000001    1    5    0    0    0   2.5811054924E+01  -2.8418940188E+01  -7.0282236243E+02   7.0387081191E+02   1.0000000000E+00     0.000   1.
3000022   2   5   0   0   0   4.3437169976E+00   -1.1366655971E+01   -1.6985867032E+02   1.7029415471E+02   2.5000000000E-01   2.100887E+00   0.
13    1    7    0    0    0  -9.2797626727E+00   1.0542357345E+01  -5.3308341959E+01   5.5127539770E+01   1.0500000000E-01     0.000  -1.
-13    1    7    0    0    0  -8.5687231413E+00   9.9316229702E+00  -4.9734359843E+01   5.1435179839E+01   1.0500000000E-01     0.000   1.
13    1    9    0    0    0   2.7216079335E+00  -6.9692628734E+00  -1.0403087354E+02   1.0429962344E+02   1.0500000000E-01     0.000  -1.
-13    1    9    0    0    0   1.6221090641E+00  -4.3973930972E+00  -6.5827796776E+01   6.5994531267E+01   1.0500000000E-01     0.000   1.
</event>
<event>
 13   1  9.2978750E-05  1.2500000E+02  7.5467720E-03  1.2380620E-01
   21   -1    0    0  502  501   0.0000000000E+00   0.0000000000E+00   2.0081060145E+01   2.0081060145E+01   0.0000000000E+00     0.000  -1.
   21   -1    0    0  501  502   0.0000000000E+00   0.0000000000E+00  -1.9452409244E+02   1.9452409244E+02   0.0000000000E+00     0.000  -1.
   25    2    1    2    0    0   0.0000000000E+00   0.0000000000E+00  -1.7444303230E+02   2.1460515259E+02   1.2500000000E+02  1.760E-08  -1.
3000002    2    3    0    0    0  -2.4695202852E+00  -2.8919294055E+01   6.2450906727E+00   3.1327707490E+01   1.0000000000E+01  1.775E-10   1.
3000002    2    3    0    0    0   2.4695202852E+00   2.8919294055E+01  -1.8068812297E+02   1.8327744510E+02   1.0000000000E+01  5.589E-11   1.
3000001    1    4    0    0    0  -4.0470780703E+00  -2.8784256357E+01   5.7264605655E+00   2.9642952038E+01   1.0000000000E+00     0.000   1.
3000022   2   4   0   0   0   1.5775577850E+00   -1.3503769809E-01   5.1863010723E-01   1.6847554520E+00   2.5000000000E-01   7.102172E+00   0.
3000001    1    5    0    0    0   5.4291252054E+00   1.4384051596E+01  -7.6262167103E+01   7.7802920717E+01   1.0000000000E+00     0.000   1.
3000022   2   5   0   0   0   -2.9596049202E+00   1.4535242459E+01   -1.0442595587E+02   1.0547452438E+02   2.5000000000E-01   1.071643E+01   0.
13    1    7    0    0    0   5.4883050820E-01  -1.8174567694E-03   2.1627730166E-01   5.9918202668E-01   1.0500000000E-01     0.000   1.
-13    1    7    0    0    0   1.0287272769E+00  -1.3322024132E-01   3.0235280558E-01   1.0855734254E+00   1.0500000000E-01     0.000  -1.
13    1    9    0    0    0  -9.6918789000E-01   4.9682180148E+00  -3.5382368682E+01   3.5742769254E+01   1.0500000000E-01     0.000  -1.
-13    1    9    0    0    0  -1.9904170302E+00   9.5670244440E+00  -6.9043587188E+01   6.9731755129E+01   1.0500000000E-01     0.000   1.
</event>
<event>
 13   1  9.2978750E-05  1.2500000E+02  7.5467720E-03  1.2380620E-01
   21   -1    0    0  502  501   0.0000000000E+00   0.0000000000E+00   1.5317861459E+02   1.5317861459E+02   0.0000000000E+00     0.000  -1.
   21   -1    0    0  501  502   0.0000000000E+00   0.0000000000E+00  -2.5501275165E+01   2.5501275165E+01   0.0000000000E+00     0.000  -1.
   25    2    1    2    0    0   0.0000000000E+00   0.0000000000E+00   1.2767733942E+02   1.7867988975E+02   1.2500000000E+02  2.720E-08  -1.
3000002    2    3    0    0    0   1.6484447808E+01  -5.9118103614E+01   5.4847644755E+01   8.2915326265E+01   1.0000000000E+01  1.054E-09   1.
3000002    2    3    0    0    0  -1.6484447808E+01   5.9118103614E+01   7.2829694665E+01   9.5764563485E+01   1.0000000000E+01  1.501E-09   1.
3000001    1    4    0    0    0   5.3800031886E+00  -3.5517684168E+01   2.8801486735E+01   4.6054054774E+01   1.0000000000E+00     0.000   1.
3000022   2   4   0   0   0   1.1104444619E+01   -2.3600419446E+01   2.6046158021E+01   3.6861271491E+01   2.5000000000E-01   1.966513E+00   0.
3000001    1    5    0    0    0  -7.6791348519E+00   4.2196091467E+01   5.3903339556E+01   6.8891576136E+01   1.0000000000E+00     0.000  -1.
3000022   2   5   0   0   0   -8.8053129559E+00   1.6922012148E+01   1.8926355108E+01   2.6872987349E+01   2.5000000000E-01   2.966072E+00   0.
13    1    7    0    0    0   4.4592948666E+00  -9.5711535841E+00   1.0614311682E+01   1.4972205219E+01   1.0500000000E-01     0.000  -1.
-13    1    7    0    0    0   6.6451497526E+00  -1.4029265862E+01   1.5431846339E+01   2.1889066273E+01   1.0500000000E-01     0.000   1.
13    1    9    0    0    0  -5.4775127717E+00   1.0511741680E+01   1.1844867141E+01   1.6757439002E+01   1.0500000000E-01     0.000   1.
-13    1    9    0    0    0  -3.3278001841E+00   6.4102704678E+00   7.0814879671E+00   1.0115548347E+01   1.0500000000E-01     0.000  -1.
</event>
<event>
 13   1  9.2978750E-05  1.2500000E+02  7.5467720E-03  1.2380620E-01
   21   -1    0    0  502  501   0.0000000000E+00   0.0000000000E+00   1.2884281625E+02   1.2884281625E+02   0.0000000000E+00     0.000  -1.
   21   -1    0    0  501  502   0.0000000000E+00   0.0000000000E+00  -3.0317949528E+01   3.0317949528E+01   0.0000000000E+00     0.000  -1.
   25    2    1    2    0    0   0.0000000000E+00   0.0000000000E+00   9.8524866720E+01   1.5916076578E+02   1.2500000000E+02  6.188E-08  -1.
3000002    2    3    0    0    0  -4.0398738636E+01  -2.3477856030E+01  -2.0334938574E+00   4.7826801110E+01   1.0000000000E+01  2.665E-11  -1.
3000002    2    3    0    0    0   4.0398738636E+01   2.3477856030E+01   1.0055836058E+02   1.1133396467E+02   1.0000000000E+01  6.060E-12  -1.
3000001    1    4    0    0    0  -1.0070643854E+00   4.5523099513E-01  -8.5612468138E-01   1.7188261708E+00   1.0000000000E+00     0.000   1.
3000022   2   4   0   0   0   -3.9391674251E+01   -2.3933087025E+01   -1.1773691760E+00   4.6107974939E+01   2.5000000000E-01   7.871006E+00   0.
3000001    1    5    0    0    0   1.7189415732E+01   4.5853113811E+00   3.5418761007E+01   3.9648325626E+01   1.0000000000E+00     0.000  -1.
3000022   2   5   0   0   0   2.3209322904E+01   1.8892544649E+01   6.5139599571E+01   7.1685639044E+01   2.5000000000E-01   4.824539E+00   0.
13    1    7    0    0    0  -2.7360595055E+01  -1.6669767552E+01  -7.9286660800E-01   3.2048759328E+01   1.0500000000E-01     0.000   1.
-13    1    7    0    0    0  -1.2031079195E+01  -7.2633194727E+00  -3.8450256802E-01   1.4059215611E+01   1.0500000000E-01     0.000  -1.
13    1    9    0    0    0   5.3182509313E+00   4.3248075881E+00   1.4919229642E+01   1.6418958302E+01   1.0500000000E-01     0.000  -1.
-13    1    9    0    0    0   1.7891071972E+01   1.4567737061E+01   5.0220369929E+01   5.5266680742E+01   1.0500000000E-01     0.000   1.
</event>
<event>
 13   1  9.2978750E-05  1.2500000E+02  7.5467720E-03  1.2380620E-01
   21   -1    0    0  502  501   0.0000000000E+00   0.0000000000E+00   8.6437610536E+01   8.6437610536E+01   0.0000000000E+00     0.000   1.
   21   -1    0    0  501  502   0.0000000000E+00   0.0000000000E+00  -4.5191554646E+01   4.5191554646E+01   0.0000000000E+00     0.000   1.
   25    2    1    2    0    0   0.0000000000E+00   0.0000000000E+00   4.1246055890E+01   1.3162916518E+02   1.2500000000E+02  4.349E-08  -1.
3000002    2    3    0    0    0   5.5328465881E+01   4.9349255439E+00  -7.6457172356E+00   5.6956559050E+01   1.0000000000E+01  1.032E-10   1.
3000002    2    3    0    0    0  -5.5328465881E+01  -4.9349255439E+00   4.8891773126E+01   7.4672606130E+01   1.0000000000E+01  4.322E-10   1.
3000001    1    4    0    0    0   5.4416360349E+01   6.2710497891E+00  -7.1765238782E+00   5.5253677109E+01   1.0000000000E+00     0.000   1.
3000022   2   4   0   0   0   9.1210553119E-01   -1.3361242452E+00   -4.6919335745E-01   1.7028819411E+00   2.5000000000E-01   3.109290E+00   0.
3000001    1    5    0    0    0  -5.3224085075E+01  -2.8435210203E+00   4.7434566630E+01   7.1357739280E+01   1.0000000000E+00     0.000   1.
3000022   2   5   0   0   0   -2.1043808056E+00   -2.0914045236E+00   1.4572064960E+00   3.3148668493E+00   2.5000000000E-01   1.624531E+01   0.
13    1    7    0    0    0   4.5326872293E-01  -6.0561222295E-01  -2.8065299233E-01   8.1363984777E-01   1.0500000000E-01     0.000  -1.
-13    1    7    0    0    0   4.5883680826E-01  -7.3051202226E-01  -1.8854036512E-01   8.8924209334E-01   1.0500000000E-01     0.000   1.
13    1    9    0    0    0  -1.2050116810E+00  -1.2867516107E+00   8.7248824829E-01   1.9697826282E+00   1.0500000000E-01     0.000   1.
-13    1    9    0    0    0  -8.9936912460E-01  -8.0465291300E-01   5.8471824772E-01   1.3450842211E+00   1.0500000000E-01     0.000  -1.
</event>
<event>
 13   1  9.2978750E-05  1.2500000E+02  7.5467720E-03  1.2380620E-01
   21   -1    0    0  502  501   0.0000000000E+00   0.0000000000E+00   6.1119974116E+01   6.1119974116E+01   0.0000000000E+00     0.000   1.
   21   -1    0    0  501  502   0.0000000000E+00   0.0000000000E+00  -6.3911185443E+01   6.3911185443E+01   0.0000000000E+00     0.000   1.
   25    2    1    2    0    0   0.0000000000E+00   0.0000000000E+00  -2.7912113279E+00   1.2503115956E+02   1.2500000000E+02  2.418E-08  -1.
3000002    2    3    0    0    0  -3.3915069171E+01   5.1352004192E+01  -5.7544148100E+00   6.2612886383E+01   1.0000000000E+01  4.316E-11  -1.
3000002    2    3    0    0    0   3.3915069171E+01  -5.1352004192E+01   2.9632034821E+00   6.2418273177E+01   1.0000000000E+01  1.451E-10  -1.
3000001    1    4    0    0    0  -3.0449099919E+01   4.8165653398E+01  -7.7054592240E+00   5.7510450833E+01   1.0000000000E+00     0.000  -1.
3000022   2   4   0   0   0   -3.4659692528E+00   3.1863507942E+00   1.9510444141E+00   5.1024355508E+00   2.5000000000E-01   9.124925E-01   0.
3000001    1    5    0    0    0   5.3801646627E-01  -3.8657638389E+00   1.6672729789E+00   4.3604347216E+00   1.0000000000E+00     0.000   1.
3000022   2   5   0   0   0   3.3377052705E+01   -4.7486240353E+01   1.2959305032E+00   5.8057838455E+01   2.5000000000E-01   1.385502E+00   0.
13    1    7    0    0    0  -2.2692607222E+00   2.0596844813E+00   1.3264041930E+00   3.3409904925E+00   1.0500000000E-01     0.000  -1.
-13    1    7    0    0    0  -1.1967085306E+00   1.1266663129E+00   6.2464022110E-01   1.7614450583E+00   1.0500000000E-01     0.000   1.
13    1    9    0    0    0   1.2241787294E+01  -1.7321707331E+01   4.9566646119E-01   2.1216965176E+01   1.0500000000E-01     0.000   1.
-13    1    9    0    0    0   2.1135265411E+01  -3.0164533022E+01   8.0026404204E-01   3.6840873279E+01   1.0500000000E-01     0.000  -1.
</event>
<event>
 13   1  9.2978750E-05  1.2500000E+02  7.5467720E-03  1.2380620E-01
   21   -1    0    0  502  501   0.0000000000E+00   0.0000000000E+00   5.7681978854E+01   5.7681978854E+01   0.0000000000E+00     0.000   1.
   21   -1    0    0  501  502   0.0000000000E+00   0.0000000000E+00  -6.7720457544E+01   6.7720457544E+01   0.0000000000E+00     0.000   1.
   25    2    1    2    0    0   0.0000000000E+00   0.0000000000E+00  -1.0038478690E+01   1.2540243640E+02   1.2500000000E+02  4.787E-08  -1.
3000002    2    3    0    0    0   2.4121899536E+00  -3.6381603935E+01   4.4908548957E+01   5.8704493309E+01   1.0000000000E+01  1.889E-10  -1.
3000002    2    3    0    0    0  -2.4121899536E+00   3.6381603935E+01  -5.4947027647E+01   6.6697943091E+01   1.0000000000E+01  1.504E-10  -1.
3000001    1    4    0    0    0   3.0032733748E+00  -2.2219196258E+01   3.4331588501E+01   4.1016707600E+01   1.0000000000E+00     0.000  -1.
3000022   2   4   0   0   0   -5.9108342119E-01   -1.4162407677E+01   1.0576960457E+01   1.7687785710E+01   2.5000000000E-01   1.400639E-01   0.
3000001    1    5    0    0    0   3.2828912509E+00   6.8988614370E+00  -1.2964896434E+01   1.5081783834E+01   1.0000000000E+00     0.000   1.
3000022   2   5   0   0   0   -5.6950812045E+00   2.9482742498E+01   -4.1982131214E+01   5.1616159256E+01   2.5000000000E-01   2.642282E+00   0.
13    1    7    0    0    0  -1.6352795070E-01  -4.3959352174E+00   3.2278634000E+00   5.4572076152E+00   1.0500000000E-01     0.000   1.
-13    1    7    0    0    0  -4.2755547049E-01  -9.7664724595E+00   7.3490970566E+00   1.2230578095E+01   1.0500000000E-01     0.000  -1.
13    1    9    0    0    0  -3.1457368534E+00   1.6031108294E+01  -2.2760622603E+01   2.8016942370E+01   1.0500000000E-01     0.000  -1.
-13    1    9    0    0    0  -2.5493443511E+00   1.3451634204E+01  -1.9221508610E+01   2.3599216886E+01   1.0500000000E-01     0.000   1.
</event>
<event>
 13   1  9.2978750E-05  1.2500000E+02  7.5467720E-03  1.2380620E-01
   21   -1    0    0  502  501   0.0000000000E+00   0.0000000000E+00   2.1998687596E+01   2.1998687596E+01   0.0000000000E+00     0.000  -1.
   21   -1    0    0  501  502   0.0000000000E+00   0.0000000000E+00  -1.7756741091E+02   1.7756741091E+02   0.0000000000E+00     0.000  -1.
   25    2    1    2    0    0   0.0000000000E+00   0.0000000000E+00  -1.5556872332E+02   1.9956609851E+02   1.2500000000E+02  2.205E-09  -1.
3000002    2    3    0    0    0   4.7215094332E+01   4.7680188596E+00  -1.4842829200E+01   5.0717932876E+01   1.0000000000E+01  1.694E-10   1.
3000002    2    3    0    0    0  -4.7215094332E+01  -4.7680188596E+00  -1.4072589412E+02   1.4884816563E+02   1.0000000000E+01  3.532E-10   1.
3000001    1    4    0    0    0   1.8500826170E+01  -2.3648318929E+00  -3.3496312434E+00   1.8976117314E+01   1.0000000000E+00     0.000  -1.
3000022   2   4   0   0   0   2.8714268162E+01   7.1328507525E+00   -1.1493197957E+01   3.1741815562E+01   2.5000000000E-01   2.967915E+00   0.
3000001    1    5    0    0    0  -2.2653523225E+01  -5.2520679244E+00  -8.0690257876E+01   8.3980259871E+01   1.0000000000E+00     0.000   1.
3000022   2   5   0   0   0   -2.4561571107E+01   4.8404906480E-01   -6.0035636244E+01   6.4867905762E+01   2.5000000000E-01   2.666050E+00   0.
13    1    7    0    0    0   9.7342382731E+00   2.4676741374E+00  -3.9287791461E+00   1.0783837025E+01   1.0500000000E-01     0.000   1.
-13    1    7    0    0    0   1.8980029889E+01   4.6651766151E+00  -7.5644188106E+00   2.0957978537E+01   1.0500000000E-01     0.000  -1.
13    1    9    0    0    0  -1.4028973316E+01   2.2625332540E-01  -3.4398881053E+01   3.7150468713E+01   1.0500000000E-01     0.000   1.
-13    1    9    0    0    0  -1.0532597791E+01   2.5779573940E-01  -2.5636755191E+01   2.7717437050E+01   1.0500000000E-01     0.000  -1.
</event>
<event>
 13   1  9.2978750E-05  1.2500000E+02  7.5467720E-03  1.2380620E-01
   21   -1    0    0  502  501   0.0000000000E+00   0.0000000000E+00   3.8843603061E+01   3.8843603061E+01   0.0000000000E+00     0.000   1.
   21   -1    0    0  501  502   0.0000000000E+00   0.0000000000E+00  -1.0056353407E+02   1.0056353407E+02   0.0000000000E+00     0.000   1.
   25    2    1    2    0    0   0.0000000000E+00   0.0000000000E+00  -6.1719931013E+01   1.3940713714E+02   1.2500000000E+02  7.745E-08  -1.
3000002    2    3    0    0    0   4.9230172425E+01  -3.1707496503E+01  -9.1976993293E+00   6.0113000960E+01   1.0000000000E+01  3.699E-10   1.
3000002    2    3    0    0    0  -4.9230172425E+01   3.1707496503E+01  -5.2522231684E+01   7.9294136180E+01   1.0000000000E+01  2.624E-10   1.
3000001    1    4    0    0    0   3.8864782241E+01  -2.1681737806E+01  -3.6653735194E+00   4.4665467825E+01   1.0000000000E+00     0.000  -1.
3000022   2   4   0   0   0   1.0365390184E+01   -1.0025758697E+01   -5.5323258099E+00   1.5447533135E+01   2.5000000000E-01   4.094705E+00   0.
3000001    1    5    0    0    0  -3.5787128629E+01   2.7860425795E+01  -3.8659297025E+01   5.9602543129E+01   1.0000000000E+00     0.000   1.
3000022   2   5   0   0   0   -1.3443043796E+01   3.8470707084E+00   -1.3862934659E+01   1.9691593051E+01   2.5000000000E-01   3.104969E+00   0.
13    1    7    0    0    0   6.7552261526E+00  -6.5986735761E+00  -3.6552165044E+00   1.0126559437E+01   1.0500000000E-01     0.000  -1.
-13    1    7    0    0    0   3.6101640311E+00  -3.4270851205E+00  -1.8771093055E+00   5.3209736985E+00   1.0500000000E-01     0.000   1.
13    1    9    0    0    0  -9.0295746209E+00   2.5813284990E+00  -9.3839841599E+00   1.3276545423E+01   1.0500000000E-01     0.000   1.
-13    1    9    0    0    0  -4.4134691746E+00   1.2657422094E+00  -4.4789504992E+00   6.4150476280E+00   1.0500000000E-01     0.000  -1.
</event>
<event>
 13   1  9.2978750E-05  1.2500000E+02  7.5467720E-03  1.2380620E-01
   21   -1    0    0  502  501   0.0000000000E+00   0.0000000000E+00   7.2765092361E+02   7.2765092361E+02   0.0000000000E+00     0.000   1.
   21   -1    0    0  501  502   0.0000000000E+00   0.0000000000E+00  -5.3683021257E+00   5.3683021257E+00   0.0000000000E+00     0.000   1.
   25    2    1    2    0    0   0.0000000000E+00   0.0000000000E+00   7.2228262149E+02   7.3301922574E+02   1.2500000000E+02  6.691E-08  -1.
3000002    2    3    0    0    0   4.8425991125E+01  -3.1448279595E+01   4.8856751001E+02   4.9206938813E+02   1.0000000000E+01  1.378E-09  -1.
3000002    2    3    0    0    0  -4.8425991125E+01   3.1448279595E+01   2.3371511148E+02   2.4094983761E+02   1.0000000000E+01  1.091E-09  -1.
3000001    1    4    0    0    0   3.1311643144E+01  -1.4531602671E+01   2.8983369450E+02   2.9188380726E+02   1.0000000000E+00     0.000  -1.
3000022   2   4   0   0   0   1.7114347981E+01   -1.6916676924E+01   1.9873381550E+02   2.0018558087E+02   2.5000000000E-01   1.140627E+01   0.
3000001    1    5    0    0    0  -3.5568161538E+01   2.2550308812E+01   1.8701535271E+02   1.9170120681E+02   1.0000000000E+00     0.000  -1.
3000022   2   5   0   0   0   -1.2857829588E+01   8.8979707830E+00   4.6699758771E+01   4.9248630794E+01   2.5000000000E-01   6.840449E+00   0.
13    1    7    0    0    0   1.1192155229E+01  -1.1030908391E+01   1.3020142030E+02   1.3114635394E+02   1.0500000000E-01     0.000   1.
-13    1    7    0    0    0   5.9221927528E+00  -5.8857685338E+00   6.8532395200E+01   6.9039226930E+01   1.0500000000E-01     0.000  -1.
13    1    9    0    0    0  -5.0314572871E+00   3.5578404882E+00   1.8405801859E+01   1.9410264255E+01   1.0500000000E-01     0.000   1.
-13    1    9    0    0    0  -7.8263723004E+00   5.3401302948E+00   2.8293956912E+01   2.9838366538E+01   1.0500000000E-01     0.000  -1.
</event>
<event>
 13   1  9.2978750E-05  1.2500000E+02  7.5467720E-03  1.2380620E-01
   21   -1    0    0  502  501   0.0000000000E+00   0.0000000000E+00   8.0998041142E+01   8.0998041142E+01   0.0000000000E+00     0.000   1.
   21   -1    0    0  501  502   0.0000000000E+00   0.0000000000E+00  -4.8226474924E+01   4.8226474924E+01   0.0000000000E+00     0.000   1.
   25    2    1    2    0    0   0.0000000000E+00   0.0000000000E+00   3.2771566218E+01   1.2922451607E+02   1.2500000000E+02  1.179E-07  -1.
3000002    2    3    0    0    0  -3.7716348178E+01  -6.1702061666E-01  -3.4083656482E+01   5.1813118740E+01   1.0000000000E+01  4.227E-10   1.
3000002    2    3    0    0    0   3.7716348178E+01   6.1702061666E-01   6.6855222700E+01   7.7411397330E+01   1.0000000000E+01  2.025E-10   1.
3000001    1    4    0    0    0  -3.4621107020E+01  -5.7854600577E-01  -2.6487618844E+01   4.3606762306E+01   1.0000000000E+00     0.000  -1.
3000022   2   4   0   0   0   -3.0952411584E+00   -3.8474610892E-02   -7.5960376377E+00   8.2063564337E+00   2.5000000000E-01   2.361653E+00   0.
3000001    1    5    0    0    0   2.4548440597E+00  -3.8522064495E-01   1.3228782804E+00   2.9874171532E+00   1.0000000000E+00     0.000   1.
3000022   2   5   0   0   0   3.5261504119E+01   1.0022412616E+00   6.5532344420E+01   7.4423980177E+01   2.5000000000E-01   5.378370E+00   0.
13    1    7    0    0    0  -1.8043344907E+00  -7.7776095489E-02  -4.3376695942E+00   4.6997951640E+00   1.0500000000E-01     0.000   1.
-13    1    7    0    0    0  -1.2909066677E+00   3.9301484598E-02  -3.2583680435E+00   3.5065612697E+00   1.0500000000E-01     0.000  -1.
13    1    9    0    0    0   1.4782718289E+01   3.9715568582E-01   2.7599929941E+01   3.1312196512E+01   1.0500000000E-01     0.000  -1.
-13    1    9    0    0    0   2.0478785830E+01   6.0508557579E-01   3.7932414479E+01   4.3111783665E+01   1.0500000000E-01     0.000   1.
</event>
<event>
 13   1  9.2978750E-05  1.2500000E+02  7.5467720E-03  1.2380620E-01
   21   -1    0    0  502  501   0.0000000000E+00   0.0000000000E+00   2.3142770496E+02   2.3142770496E+02   0.0000000000E+00     0.000   1.
   21   -1    0    0  501  502   0.0000000000E+00   0.0000000000E+00  -1.6878921219E+01   1.6878921219E+01   0.0000000000E+00     0.000   1.
   25    2    1    2    0    0   0.0000000000E+00   0.0000000000E+00   2.1454878374E+02   2.4830662618E+02   1.2500000000E+02  1.891E-08  -1.
3000002    2    3    0    0    0   5.5928964928E+01  -1.5049783529E+01   6.5055610252E+01   8.7674269472E+01   1.0000000000E+01  1.813E-10  -1.
3000002    2    3    0    0    0  -5.5928964928E+01   1.5049783529E+01   1.4949317349E+02   1.6063235671E+02   1.0000000000E+01  4.425E-10  -1.
3000001    1    4    0    0    0   4.5124255493E+01  -8.8438347994E+00   5.4730559117E+01   7.1490180787E+01   1.0000000000E+00     0.000  -1.
3000022   2   4   0   0   0   1.0804709435E+01   -6.2059487297E+00   1.0325051135E+01   1.6184088685E+01   2.5000000000E-01   5.474923E-01   0.
3000001    1    5    0    0    0  -8.9758031140E+00   2.3710110436E+00   3.5287664662E+01   3.6502137091E+01   1.0000000000E+00     0.000   1.
3000022   2   5   0   0   0   -4.6953161814E+01   1.2678772486E+01   1.1420550883E+02   1.2413021962E+02   2.5000000000E-01   3.926831E+00   0.
13    1    7    0    0    0   3.0858638892E+00  -1.7958558195E+00   3.0069779896E+00   4.6691108037E+00   1.0500000000E-01     0.000   1.
-13    1    7    0    0    0   7.7188455459E+00  -4.4100929102E+00   7.3180731455E+00   1.1514977881E+01   1.0500000000E-01     0.000  -1.
13    1    9    0    0    0  -3.6056455154E+01   9.7433920750E+00   8.7683926336E+01   9.5307311420E+01   1.0500000000E-01     0.000  -1.
-13    1    9    0    0    0  -1.0896706660E+01   2.9353804105E+00   2.6521582489E+01   2.8822908197E+01   1.0500000000E-01     0.000   1.
</event>
<event>
 13   1  9.2978750E-05  1.2500000E+02  7.5467720E-03  1.2380620E-01
   21   -1    0    0  502  501   0.0000000000E+00   0.0000000000E+00   8.6239382133E+01   8.6239382133E+01   0.0000000000E+00     0.000  -1.
   21   -1    0    0  501  502   0.0000000000E+00   0.0000000000E+00  -4.5295431198E+01   4.5295431198E+01   0.0000000000E+00     0.000  -1.
   25    2    1    2    0    0   0.0000000000E+00   0.0000000000E+00   4.0943950935E+01   1.3153481333E+02   1.2500000000E+02  9.975E-08  -1.
3000002    2    3    0    0    0  -5.6834509534E+01  -2.0303246151E+01   7.0017122453E+00   6.1574404201E+01   1.0000000000E+01  2.340E-11  -1.
3000002    2    3    0    0    0   5.6834509534E+01   2.0303246151E+01   3.3942238690E+01   6.9960409129E+01   1.0000000000E+01  1.178E-09  -1.
3000001    1    4    0    0    0  -5.1133257521E+01  -1.6346161574E+01   8.7823649563E+00   5.4405302656E+01   1.0000000000E+00     0.000  -1.
3000022   2   4   0   0   0   -5.7012520134E+00   -3.9570845778E+00   -1.7806527110E+00   7.1691015443E+00   2.5000000000E-01   2.352572E+01   0.
3000001    1    5    0    0    0   3.7747977076E+01   1.4459749200E+01   1.7340100072E+01   4.3996286102E+01   1.0000000000E+00     0.000  -1.
3000022   2   5   0   0   0   1.9086532459E+01   5.8434969512E+00   1.6602138618E+01   2.5964123028E+01   2.5000000000E-01   3.482021E+00   0.
13    1    7    0    0    0  -1.6088122493E+00  -1.0692707240E+00  -5.0043839264E-01   1.9982693310E+00   1.0500000000E-01     0.000   1.
-13    1    7    0    0    0  -4.0924397642E+00  -2.8878138538E+00  -1.2802143184E+00   5.1708322133E+00   1.0500000000E-01     0.000  -1.
13    1    9    0    0    0   8.9721454494E+00   2.6827019048E+00   7.7525807783E+00   1.2157706083E+01   1.0500000000E-01     0.000  -1.
-13    1    9    0    0    0   1.0114387009E+01   3.1607950464E+00   8.8495578397E+00   1.3806416945E+01   1.0500000000E-01     0.000   1.
</event>
<event>
 13   1  9.2978750E-05  1.2500000E+02  7.5467720E-03  1.2380620E-01
   21   -1    0    0  502  501   0.0000000000E+00   0.0000000000E+00   2.2631903183E+02   2.2631903183E+02   0.0000000000E+00     0.000   1.
   21   -1    0    0  501  502   0.0000000000E+00   0.0000000000E+00  -1.7259927141E+01   1.7259927141E+01   0.0000000000E+00     0.000   1.
   25    2    1    2    0    0   0.0000000000E+00   0.0000000000E+00   2.0905910469E+02   2.4357895897E+02   1.2500000000E+02  7.371E-09  -1.
3000002    2    3    0    0    0  -3.5722043201E+01   5.0242596244E+01   9.9809536812E+01   1.1773838153E+02   1.0000000000E+01  6.421E-10  -1.
3000002    2    3    0    0    0   3.5722043201E+01  -5.0242596244E+01   1.0924956788E+02   1.2584057744E+02   1.0000000000E+01  2.274E-09  -1.
3000001    1    4    0    0    0  -2.4362145833E+01   3.3169692838E+01   7.4945683561E+01   8.5507883596E+01   1.0000000000E+00     0.000  -1.
3000022   2   4   0   0   0   -1.1359897368E+01   1.7072903406E+01   2.4863853250E+01   3.2230497938E+01   2.5000000000E-01   1.886383E+00   0.
3000001    1    5    0    0    0   1.1872788031E+01  -1.5108543812E+01   4.3561872147E+01   4.7622136625E+01   1.0000000000E+00     0.000  -1.
3000022   2   5   0   0   0   2.3849255170E+01   -3.5134052431E+01   6.5687695732E+01   7.8218440811E+01   2.5000000000E-01   7.287935E+00   0.
13    1    7    0    0    0  -5.8133727947E+00   8.6876603574E+00   1.2576654936E+01   1.6354021528E+01   1.0500000000E-01     0.000   1.
-13    1    7    0    0    0  -5.5465245733E+00   8.3852430482E+00   1.2287198314E+01   1.5876476411E+01   1.0500000000E-01     0.000  -1.
13    1    9    0    0    0   1.7787834619E+01  -2.6241746877E+01   4.9074989748E+01   5.8424326983E+01   1.0500000000E-01     0.000   1.
-13    1    9    0    0    0   6.0614205503E+00  -8.8923055539E+00   1.6612705984E+01   1.9794113828E+01   1.0500000000E-01     0.000  -1.
</event>
<event>
 13   1  9.2978750E-05  1.2500000E+02  7.5467720E-03  1.2380620E-01
   21   -1    0    0  502  501   0.0000000000E+00   0.0000000000E+00   1.8983727191E+02   1.8983727191E+02   0.0000000000E+00     0.000   1.
   21   -1    0    0  501  502   0.0000000000E+00   0.0000000000E+00  -2.0576833837E+01   2.0576833837E+01   0.0000000000E+00     0.000   1.
   25    2    1    2    0    0   0.0000000000E+00   0.0000000000E+00   1.6926043807E+02   2.1041410574E+02   1.2500000000E+02  6.239E-08  -1.
3000002    2    3    0    0    0  -2.2633511384E+01  -2.6191739991E+01   1.7059407281E+02   1.7435773788E+02   1.0000000000E+01  1.064E-09  -1.
3000002    2    3    0    0    0   2.2633511384E+01   2.6191739991E+01  -1.3336347424E+00   3.6056367856E+01   1.0000000000E+01  7.181E-11  -1.
3000001    1    4    0    0    0  -1.8704751152E+01  -1.4512717087E+01   1.1428100012E+02   1.1671175460E+02   1.0000000000E+00     0.000  -1.
3000022   2   4   0   0   0   -3.9287602317E+00   -1.1679022905E+01   5.6313072689E+01   5.7645983283E+01   2.5000000000E-01   1.468158E+00   0.
3000001    1    5    0    0    0   1.4885998480E+01   2.2981883873E+01   7.5516189513E-01   2.7410403255E+01   1.0000000000E+00     0.000  -1.
3000022   2   5   0   0   0   7.7475129035E+00   3.2098561185E+00   -2.0887966375E+00   8.6459646011E+00   2.5000000000E-01   2.527210E+00   0.
13    1    7    0    0    0  -1.3960646632E+00  -4.3366176302E+00   2.0815120136E+01   2.1308108792E+01   1.0500000000E-01     0.000  -1.
-13    1    7    0    0    0  -2.5326955684E+00  -7.3424052748E+00   3.5497952553E+01   3.6337874491E+01   1.0500000000E-01     0.000   1.
13    1    9    0    0    0   3.4079270473E+00   1.4146968495E+00  -9.8729520836E-01   3.8211399823E+00   1.0500000000E-01     0.000   1.
-13    1    9    0    0    0   4.3395858562E+00   1.7951592690E+00  -1.1015014291E+00   4.8248246189E+00   1.0500000000E-01     0.000  -1.
</event>
<event>
 13   1  9.2978750E-05  1.2500000E+02  7.5467720E-03  1.2380620E-01
   21   -1    0    0  502  501   0.0000000000E+00   0.0000000000E+00   2.5560537001E+02   2.5560537001E+02   0.0000000000E+00     0.000   1.
   21   -1    0    0  501  502   0.0000000000E+00   0.0000000000E+00  -1.5282347158E+01   1.5282347158E+01   0.0000000000E+00     0.000   1.
   25    2    1    2    0    0   0.0000000000E+00   0.0000000000E+00   2.4032302285E+02   2.7088771717E+02   1.2500000000E+02  2.295E-07  -1.
3000002    2    3    0    0    0  -3.6819344184E+01   4.3576687565E+01   1.7106110767E+02   1.8060037199E+02   1.0000000000E+01  1.195E-09  -1.
3000002    2    3    0    0    0   3.6819344184E+01  -4.3576687565E+01   6.9261915177E+01   9.0287345178E+01   1.0000000000E+01  1.333E-09  -1.
3000001    1    4    0    0    0  -5.6549509696E+00   1.0043660619E+01   4.5706660737E+01   4.7148196411E+01   1.0000000000E+00     0.000  -1.
3000022   2   4   0   0   0   -3.1164393215E+01   3.3533026946E+01   1.2535444694E+02   1.3345217558E+02   2.5000000000E-01   9.981010E+00   0.
3000001    1    5    0    0    0   7.9782592941E+00  -5.6105549759E+00   7.9766297693E+00   1.2639524159E+01   1.0000000000E+00     0.000   1.
3000022   2   5   0   0   0   2.8841084890E+01   -3.7966132589E+01   6.1285285408E+01   7.7647821019E+01   2.5000000000E-01   8.131149E+00   0.
13    1    7    0    0    0  -2.1172156392E+01   2.2711218331E+01   8.4967331723E+01   9.0462799700E+01   1.0500000000E-01     0.000  -1.
-13    1    7    0    0    0  -9.9922368224E+00   1.0821808615E+01   4.0387115213E+01   4.2989375881E+01   1.0500000000E-01     0.000   1.
13    1    9    0    0    0   2.0720145936E+01  -2.7222210621E+01   4.4013246963E+01   5.5745404581E+01   1.0500000000E-01     0.000  -1.
-13    1    9    0    0    0   8.1209389540E+00  -1.0743921968E+01   1.7272038445E+01   2.1902416438E+01   1.0500000000E-01     0.000   1.
</event>
<event>
 13   1  9.2978750E-05  1.2500000E+02  7.5467720E-03  1.2380620E-01
   21   -1    0    0  502  501   0.0000000000E+00   0.0000000000E+00   6.6339650624E+01   6.6339650624E+01   0.0000000000E+00     0.000   1.
   21   -1    0    0  501  502   0.0000000000E+00   0.0000000000E+00  -5.8882583240E+01   5.8882583240E+01   0.0000000000E+00     0.000   1.
   25    2    1    2    0    0   0.0000000000E+00   0.0000000000E+00   7.4570673837E+00   1.2522223386E+02   1.2500000000E+02  3.606E-08  -1.
3000002    2    3    0    0    0  -7.2871480935E+00  -1.0094731047E+00   6.5092056214E+01   6.6265355544E+01   1.0000000000E+01  5.853E-10   1.
3000002    2    3    0    0    0   7.2871480935E+00   1.0094731047E+00  -5.7634988830E+01   5.8956878316E+01   1.0000000000E+01  1.584E-09   1.
3000001    1    4    0    0    0  -8.2691896732E-01  -1.1325767376E+00   1.3295885186E+00   2.1758517123E+00   1.0000000000E+00     0.000   1.
3000022   2   4   0   0   0   -6.4602291262E+00   1.2310363291E-01   6.3762467695E+01   6.4089503832E+01   2.5000000000E-01   5.373772E+00   0.
3000001    1    5    0    0    0  -1.2871560368E+00   1.7632570512E+00  -2.7816210576E+01   2.7919660043E+01   1.0000000000E+00     0.000   1.
3000022   2   5   0   0   0   8.5743041303E+00   -7.5378394646E-01   -2.9818778254E+01   3.1037218272E+01   2.5000000000E-01   7.300423E+00   0.
13    1    7    0    0    0  -3.8966347195E+00   5.4404709363E-02   3.9036157963E+01   3.9230337439E+01   1.0500000000E-01     0.000   1.
-13    1    7    0    0    0  -2.5635944067E+00   6.8698923548E-02   2.4726309732E+01   2.4859166393E+01   1.0500000000E-01     0.000  -1.
13    1    9    0    0    0   3.3446282299E+00  -3.5446625141E-01  -1.1598042298E+01   1.2076331996E+01   1.0500000000E-01     0.000   1.
-13    1    9    0    0    0   5.2296759005E+00  -3.9931769505E-01  -1.8220735955E+01   1.8960886277E+01   1.0500000000E-01     0.000  -1.
</event>
<event>
 13   1  9.2978750E-05  1.2500000E+02  7.5467720E-03  1.2380620E-01
   21   -1    0    0  502  501   0.0000000000E+00   0.0000000000E+00   1.7595504836E+01   1.7595504836E+01   0.0000000000E+00     0.000  -1.
   21   -1    0    0  501  502   0.0000000000E+00   0.0000000000E+00  -2.2200272379E+02   2.2200272379E+02   0.0000000000E+00     0.000  -1.
   25    2    1    2    0    0   0.0000000000E+00   0.0000000000E+00  -2.0440721895E+02   2.3959822862E+02   1.2500000000E+02  9.593E-08  -1.
3000002    2    3    0    0    0  -2.2530508320E+01   5.0486279598E+01  -4.9718605413E+01   7.5022849566E+01   1.0000000000E+01  3.495E-10  -1.
3000002    2    3    0    0    0   2.2530508320E+01  -5.0486279598E+01  -1.5468861354E+02   1.6457537905E+02   1.0000000000E+01  8.139E-11  -1.
3000001    1    4    0    0    0  -5.3612625039E+00   1.9683656015E+01  -2.3128123690E+01   3.0856110500E+01   1.0000000000E+00     0.000   1.
3000022   2   4   0   0   0   -1.7169245816E+01   3.0802623583E+01   -2.6590481723E+01   4.4166739066E+01   2.5000000000E-01   3.177065E+00   0.
3000001    1    5    0    0    0   2.6797072869E+00  -8.3937502837E+00  -3.6309359294E+01   3.7376536053E+01   1.0000000000E+00     0.000  -1.
3000022   2   5   0   0   0   1.9850801033E+01   -4.2092529314E+01   -1.1837925424E+02   1.2719884300E+02   2.5000000000E-01   1.311852E+01   0.
13    1    7    0    0    0  -9.5024583945E+00   1.7027820338E+01  -1.4785779571E+01   2.4471895789E+01   1.0500000000E-01     0.000  -1.
-13    1    7    0    0    0  -7.6667874217E+00   1.3774803245E+01  -1.1804702152E+01   1.9694843277E+01   1.0500000000E-01     0.000   1.
13    1    9    0    0    0   9.9874153106E+00  -2.1324755873E+01  -5.9968177149E+01   6.4425825359E+01   1.0500000000E-01     0.000   1.
-13    1    9    0    0    0   9.8633857225E+00  -2.0767773441E+01  -5.8411077093E+01   6.2773017641E+01   1.0500000000E-01     0.000  -1.
</event>
<event>
 13   1  9.2978750E-05  1.2500000E+02  7.5467720E-03  1.2380620E-01
   21   -1    0    0  502  501   0.0000000000E+00   0.0000000000E+00   9.3343593602E+01   9.3343593602E+01   0.0000000000E+00     0.000  -1.
   21   -1    0    0  501  502   0.0000000000E+00   0.0000000000E+00  -4.1848078151E+01   4.1848078151E+01   0.0000000000E+00     0.000  -1.
   25    2    1    2    0    0   0.0000000000E+00   0.0000000000E+00   5.1495515451E+01   1.3519167175E+02   1.2500000000E+02  1.655E-08  -1.
3000002    2    3    0    0    0  -2.8708839088E+00  -3.0231545072E+01   8.3829842943E+01   8.9719735062E+01   1.0000000000E+01  1.494E-09  -1.
3000002    2    3    0    0    0   2.8708839088E+00   3.0231545072E+01  -3.2334327492E+01   4.5471936688E+01   1.0000000000E+01  9.981E-12  -1.
3000001    1    4    0    0    0  -3.3560827393E+00  -2.9341204348E+01   7.1774643410E+01   7.7619385469E+01   1.0000000000E+00     0.000  -1.
3000022   2   4   0   0   0   4.8519883051E-01   -8.9034072402E-01   1.2055199533E+01   1.2100349593E+01   2.5000000000E-01   3.895840E+00   0.
3000001    1    5    0    0    0   5.8212979234E-01   2.1083328346E+01  -1.5567219108E+01   2.6233259805E+01   1.0000000000E+00     0.000  -1.
3000022   2   5   0   0   0   2.2887541164E+00   9.1482167254E+00   -1.6767108383E+01   1.9238676883E+01   2.5000000000E-01   2.013302E+00   0.
13    1    7    0    0    0   2.0299541960E-01  -3.5570310289E-01   5.6666584769E+00   5.6824092717E+00   1.0500000000E-01     0.000   1.
-13    1    7    0    0    0   2.8220341091E-01  -5.3463762113E-01   6.3885410556E+00   6.4179403215E+00   1.0500000000E-01     0.000  -1.
13    1    9    0    0    0   5.8634162871E-01   2.2719801471E+00  -4.1363087881E+00   4.7566548839E+00   1.0500000000E-01     0.000  -1.
-13    1    9    0    0    0   1.7024124877E+00   6.8762365783E+00  -1.2630799595E+01   1.4482021999E+01   1.0500000000E-01     0.000   1.
</event>
<event>
 13   1  9.2978750E-05  1.2500000E+02  7.5467720E-03  1.2380620E-01
   21   -1    0    0  502  501   0.0000000000E+00   0.0000000000E+00   1.2738148246E+01   1.2738148246E+01   0.0000000000E+00     0.000   1.
   21   -1    0    0  501  502   0.0000000000E+00   0.0000000000E+00  -3.0665760239E+02   3.0665760239E+02   0.0000000000E+00     0.000   1.
   25    2    1    2    0    0   0.0000000000E+00   0.0000000000E+00  -2.9391945414E+02   3.1939575063E+02   1.2500000000E+02  2.657E-08  -1.
3000002    2    3    0    0    0   1.5618939505E+01   5.7974017030E+01  -1.1070588517E+02   1.2633578643E+02   1.0000000000E+01  1.341E-10   1.
3000002    2    3    0    0    0  -1.5618939505E+01  -5.7974017030E+01  -1.8321356897E+02   1.9305996420E+02   1.0000000000E+01  4.738E-10   1.
3000001    1    4    0    0    0   8.4268864315E+00   4.0795759337E+01  -6.8097859835E+01   7.9834985494E+01   1.0000000000E+00     0.000   1.
3000022   2   4   0   0   0   7.1920530735E+00   1.7178257693E+01   -4.2608025334E+01   4.6500800936E+01   2.5000000000E-01   4.828371E+00   0.
3000001    1    5    0    0    0  -9.1850848294E+00  -3.2157470294E+01  -8.6259005191E+01   9.2520725546E+01   1.0000000000E+00     0.000   1.
3000022   2   5   0   0   0   -6.4338546756E+00   -2.5816546736E+01   -9.6954563780E+01   1.0053923865E+02   2.5000000000E-01   9.350269E+00   0.
13    1    7    0    0    0   2.7414346625E+00   6.5783757910E+00  -1.6156448314E+01   1.7658775132E+01   1.0500000000E-01     0.000  -1.
-13    1    7    0    0    0   4.4506184110E+00   1.0599881902E+01  -2.6451577020E+01   2.8842025803E+01   1.0500000000E-01     0.000   1.
13    1    9    0    0    0  -2.3872059902E+00  -9.3398504125E+00  -3.5161973357E+01   3.6459662005E+01   1.0500000000E-01     0.000   1.
-13    1    9    0    0    0  -4.0466486853E+00  -1.6476696323E+01  -6.1792590424E+01   6.4079576650E+01   1.0500000000E-01     0.000  -1.
</event>
<event>
 13   1  9.2978750E-05  1.2500000E+02  7.5467720E-03  1.2380620E-01
   21   -1    0    0  502  501   0.0000000000E+00   0.0000000000E+00   2.1663912422E+02   2.1663912422E+02   0.0000000000E+00     0.000  -1.
   21   -1    0    0  501  502   0.0000000000E+00   0.0000000000E+00  -1.8031138254E+01   1.8031138254E+01   0.0000000000E+00     0.000  -1.
   25    2    1    2    0    0   0.0000000000E+00   0.0000000000E+00   1.9860798596E+02   2.3467026247E+02   1.2500000000E+02  5.310E-08  -1.
3000002    2    3    0    0    0  -2.1643683081E+01   4.2309718623E+00   2.0747491663E+02   2.0888319983E+02   1.0000000000E+01  2.348E-09   1.
3000002    2    3    0    0    0   2.1643683081E+01  -4.2309718623E+00  -8.8669306689E+00   2.5787062642E+01   1.0000000000E+01  5.627E-10   1.
3000001    1    4    0    0    0  -1.7037220809E+00  -2.1577588540E+00   1.5864868874E+01   1.6132348142E+01   1.0000000000E+00     0.000  -1.
3000022   2   4   0   0   0   -1.9939961000E+01   6.3887307163E+00   1.9161004776E+02   1.9275085169E+02   2.5000000000E-01   3.496033E+00   0.
3000001    1    5    0    0    0   1.8563638296E+01  -7.1912264068E+00  -7.4387063277E+00   2.1275731617E+01   1.0000000000E+00     0.000   1.
3000022   2   5   0   0   0   3.0800447850E+00   2.9602545444E+00   -1.4282243412E+00   4.5113310247E+00   2.5000000000E-01   1.298629E+00   0.
13    1    7    0    0    0  -1.2156058899E+01   3.9038099377E+00   1.1626860271E+02   1.1696755320E+02   1.0500000000E-01     0.000  -1.
-13    1    7    0    0    0  -7.7839021007E+00   2.4849207787E+00   7.5341445047E+01   7.5783298489E+01   1.0500000000E-01     0.000   1.
13    1    9    0    0    0   1.0937509534E+00   9.7521062178E-01  -4.8232198282E-01   1.5462814750E+00   1.0500000000E-01     0.000  -1.
-13    1    9    0    0    0   1.9862938316E+00   1.9850439227E+00  -9.4590235838E-01   2.9650495497E+00   1.0500000000E-01     0.000   1.
</event>
<event>
 13   1  9.2978750E-05  1.2500000E+02  7.5467720E-03  1.2380620E-01
   21   -1    0    0  502  501   0.0000000000E+00   0.0000000000E+00   9.1294662231E+00   9.1294662231E+00   0.0000000000E+00     0.000   1.
   21   -1    0    0  501  502   0.0000000000E+00   0.0000000000E+00  -4.2787276984E+02   4.2787276984E+02   0.0000000000E+00     0.000   1.
   25    2    1    2    0    0   0.0000000000E+00   0.0000000000E+00  -4.1874330361E+02   4.3700223606E+02   1.2500000000E+02  2.026E-07  -1.
3000002    2    3    0    0    0   2.7294916582E+01   4.9106646305E+01  -2.9848752859E+02   3.0389353384E+02   1.0000000000E+01  1.283E-09   1.
3000002    2    3    0    0    0  -2.7294916582E+01  -4.9106646305E+01  -1.2025577502E+02   1.3310870222E+02   1.0000000000E+01  1.289E-09   1.
3000001    1    4    0    0    0   2.6121569096E+01   4.3654465787E+01  -2.7983837068E+02   2.8442672599E+02   1.0000000000E+00     0.000   1.
3000022   2   4   0   0   0   1.1733474854E+00   5.4521805177E+00   -1.8649157918E+01   1.9466807847E+01   2.5000000000E-01   1.510029E+00   0.
3000001    1    5    0    0    0  -1.5880419088E+01  -2.7554648819E+01  -5.6444110098E+01   6.4794937663E+01   1.0000000000E+00     0.000   1.
3000022   2   5   0   0   0   -1.1414497494E+01   -2.1551997486E+01   -6.3811664919E+01   6.8313764560E+01   2.5000000000E-01   7.267416E+00   0.
13    1    7    0    0    0   7.1049340722E-01   3.2986363223E+00  -1.1497553630E+01   1.1982928146E+01   1.0500000000E-01     0.000   1.
-13    1    7    0    0    0   4.6285407822E-01   2.1535441953E+00  -7.1516042872E+00   7.4838797010E+00   1.0500000000E-01     0.000  -1.
13    1    9    0    0    0  -5.0599979892E+00  -9.4818629432E+00  -2.8280760178E+01   3.0254284420E+01   1.0500000000E-01     0.000  -1.
-13    1    9    0    0    0  -6.3544995047E+00  -1.2070134543E+01  -3.5530904740E+01   3.8059480140E+01   1.0500000000E-01     0.000   1.
</event>
<event>
 13   1  9.2978750E-05  1.2500000E+02  7.5467720E-03  1.2380620E-01
   21   -1    0    0  502  501   0.0000000000E+00   0.0000000000E+00   7.6528134729E+01   7.6528134729E+01   0.0000000000E+00     0.000   1.
   21   -1    0    0  501  502   0.0000000000E+00   0.0000000000E+00  -5.1043319086E+01   5.1043319086E+01   0.0000000000E+00     0.000   1.
   25    2    1    2    0    0   0.0000000000E+00   0.0000000000E+00   2.5484815644E+01   1.2757145381E+02   1.2500000000E+02  3.980E-08  -1.
3000002    2    3    0    0    0   5.4848895522E+01  -5.3563301978E+00  -1.5561824591E+01   5.8131420056E+01   1.0000000000E+01  2.886E-10   1.
3000002    2    3    0    0    0  -5.4848895522E+01   5.3563301978E+00   4.1046640235E+01   6.9440033754E+01   1.0000000000E+01  7.985E-10   1.
3000001    1    4    0    0    0   4.7935413109E+01  -1.4117514149E+00  -1.4414176520E+01   5.0085580327E+01   1.0000000000E+00     0.000   1.
3000022   2   4   0   0   0   6.9134824132E+00   -3.9445787829E+00   -1.1476480709E+00   8.0458397291E+00   2.5000000000E-01   2.848693E+00   0.
3000001    1    5    0    0    0  -1.1684516024E+01   3.3214517383E+00   5.0302540512E+00   1.3185727594E+01   1.0000000000E+00     0.000  -1.
3000022   2   5   0   0   0   -4.3164379498E+01   2.0348784595E+00   3.6016386184E+01   5.6254306160E+01   2.5000000000E-01   3.115620E+00   0.
13    1    7    0    0    0   4.5074341336E+00  -2.5413352824E+00  -7.9635696645E-01   5.2364641605E+00   1.0500000000E-01     0.000   1.
-13    1    7    0    0    0   2.4060482796E+00  -1.4032435005E+00  -3.5129110449E-01   2.8093755686E+00   1.0500000000E-01     0.000  -1.
13    1    9    0    0    0  -2.5242842724E+01   1.2173195392E+00   2.1139588847E+01   3.2948083666E+01   1.0500000000E-01     0.000  -1.
-13    1    9    0    0    0  -1.7921536774E+01   8.1755892023E-01   1.4876797336E+01   2.3306222494E+01   1.0500000000E-01     0.000   1.
</event>
<event>
 13   1  9.2978750E-05  1.2500000E+02  7.5467720E-03  1.2380620E-01
   21   -1    0    0  502  501   0.0000000000E+00   0.0000000000E+00   1.1177135488E+01   1.1177135488E+01   0.0000000000E+00     0.000   1.
   21   -1    0    0  501  502   0.0000000000E+00   0.0000000000E+00  -3.4948578767E+02   3.4948578767E+02   0.0000000000E+00     0.000   1.
   25    2    1    2    0    0   0.0000000000E+00   0.0000000000E+00  -3.3830865218E+02   3.6066292315E+02   1.2500000000E+02  2.082E-08  -1.
3000002    2    3    0    0    0  -2.5248718655E+01   5.1060972660E+01  -1.0078242003E+02   1.1619731886E+02   1.0000000000E+01  1.278E-09   1.
3000002    2    3    0    0    0   2.5248718655E+01  -5.1060972660E+01  -2.3752623215E+02   2.4446560429E+02   1.0000000000E+01  5.055E-10   1.
3000001    1    4    0    0    0  -5.3798220729E+00   4.3363298236E+00  -1.0322345409E+01   1.2461823968E+01   1.0000000000E+00     0.000  -1.
3000022   2   4   0   0   0   -1.9868896582E+01   4.6724642836E+01   -9.0460074623E+01   1.0373549489E+02   2.5000000000E-01   6.858326E-01   0.
3000001    1    5    0    0    0   1.2526079366E+01  -1.9032408821E+01  -7.8389142794E+01   8.1639408117E+01   1.0000000000E+00     0.000  -1.
3000022   2   5   0   0   0   1.2722639288E+01   -3.2028563838E+01   -1.5913708935E+02   1.6282619617E+02   2.5000000000E-01   1.151594E+01   0.
13    1    7    0    0    0  -1.3777619066E+01   3.2343207434E+01  -6.2720162095E+01   7.1900873517E+01   1.0500000000E-01     0.000  -1.
-13    1    7    0    0    0  -6.0912775161E+00   1.4381435402E+01  -2.7739912528E+01   3.1834621375E+01   1.0500000000E-01     0.000   1.
13    1    9    0    0    0   4.7704934364E+00  -1.1960973783E+01  -5.9192513777E+01   6.0577117905E+01   1.0500000000E-01     0.000  -1.
-13    1    9    0    0    0   7.9521458520E+00  -2.0067590055E+01  -9.9944575577E+01   1.0224907827E+02   1.0500000000E-01     0.000   1.
</event>
<event>
 13   1  9.2978750E-05  1.2500000E+02  7.5467720E-03  1.2380620E-01
   21   -1    0    0  502  501   0.0000000000E+00   0.0000000000E+00   1.0391616273E+01   1.0391616273E+01   0.0000000000E+00     0.000  -1.
   21   -1    0    0  501  502   0.0000000000E+00   0.0000000000E+00  -3.7590398812E+02   3.7590398812E+02   0.0000000000E+00     0.000  -1.
   25    2    1    2    0    0   0.0000000000E+00   0.0000000000E+00  -3.6551237184E+02   3.8629560439E+02   1.2500000000E+02  3.100E-08  -1.
3000002    2    3    0    0    0   2.3152967638E+01  -4.8072266811E+01  -2.7847009101E+02   2.8371216811E+02   1.0000000000E+01  1.083E-09   1.
3000002    2    3    0    0    0  -2.3152967638E+01   4.8072266811E+01  -8.7042280830E+01   1.0258343628E+02   1.0000000000E+01  2.496E-10   1.
3000001    1    4    0    0    0   5.8510825434E+00  -7.0756435869E+00  -6.5048504103E+01   6.5700896380E+01   1.0000000000E+00     0.000   1.
3000022   2   4   0   0   0   1.7301885095E+01   -4.0996623224E+01   -2.1342158691E+02   2.1801127173E+02   2.5000000000E-01   9.660391E+00   0.
3000001    1    5    0    0    0  -1.5798241938E+01   2.7731061590E+01  -5.9864191720E+01   6.7847753652E+01   1.0000000000E+00     0.000  -1.
3000022   2   5   0   0   0   -7.3547257002E+00   2.0341205221E+01   -2.7178089109E+01   3.4735682628E+01   2.5000000000E-01   3.746903E+00   0.
13    1    7    0    0    0   9.1960425665E+00  -2.1875198721E+01  -1.1409828412E+02   1.1653978283E+02   1.0500000000E-01     0.000   1.
-13    1    7    0    0    0   8.1058425287E+00  -1.9121424503E+01  -9.9323302791E+01   1.0147148890E+02   1.0500000000E-01     0.000  -1.
13    1    9    0    0    0  -4.9158479512E+00   1.3506046572E+01  -1.7987481466E+01   2.3024755581E+01   1.0500000000E-01     0.000   1.
-13    1    9    0    0    0  -2.4388777490E+00   6.8351586489E+00  -9.1906076431E+00   1.1710927046E+01   1.0500000000E-01     0.000  -1.
</event>
<event>
 13   1  9.2978750E-05  1.2500000E+02  7.5467720E-03  1.2380620E-01
   21   -1    0    0  502  501   0.0000000000E+00   0.0000000000E+00   1.1733243302E+02   1.1733243302E+02   0.0000000000E+00     0.000   1.
   21   -1    0    0  501  502   0.0000000000E+00   0.0000000000E+00  -3.3292158863E+01   3.3292158863E+01   0.0000000000E+00     0.000   1.
   25    2    1    2    0    0   0.0000000000E+00   0.0000000000E+00   8.4040274160E+01   1.5062459189E+02   1.2500000000E+02  1.768E-08  -1.
3000002    2    3    0    0    0  -4.0008257358E+01   2.0639034854E+01   9.2853572172E+01   1.0367456912E+02   1.0000000000E+01  3.496E-10   1.
3000002    2    3    0    0    0   4.0008257358E+01  -2.0639034854E+01  -8.8132980119E+00   4.6950022773E+01   1.0000000000E+01  2.024E-11   1.
3000001    1    4    0    0    0  -2.0776656442E+01   5.1867387911E+00   4.2328445807E+01   4.7447539838E+01   1.0000000000E+00     0.000  -1.
3000022   2   4   0   0   0   -1.9231600916E+01   1.5452296063E+01   5.0525126365E+01   5.6227029280E+01   2.5000000000E-01   1.214404E+00   0.
3000001    1    5    0    0    0   2.0644401667E+01  -5.2161177389E+00  -3.0770922760E+00   2.1537588104E+01   1.0000000000E+00     0.000  -1.
3000022   2   5   0   0   0   1.9363855691E+01   -1.5422917115E+01   -5.7362057359E+00   2.5412434669E+01   2.5000000000E-01   4.907316E+00   0.
13    1    7    0    0    0  -1.3775251864E+01   1.1039382827E+01   3.6073483498E+01   4.0161334313E+01   1.0500000000E-01     0.000  -1.
-13    1    7    0    0    0  -5.4563490512E+00   4.4129132360E+00   1.4451642867E+01   1.6065694966E+01   1.0500000000E-01     0.000   1.
13    1    9    0    0    0   1.0151963289E+01  -8.1683798596E+00  -3.0394472351E+00   1.3380360707E+01   1.0500000000E-01     0.000  -1.
-13    1    9    0    0    0   9.2118924021E+00  -7.2545372559E+00  -2.6967585009E+00   1.2032073962E+01   1.0500000000E-01     0.000   1.
</event>
<event>
 13   1  9.2978750E-05  1.2500000E+02  7.5467720E-03  1.2380620E-01
   21   -1    0    0  502  501   0.0000000000E+00   0.0000000000E+00   5.9822566655E+01   5.9822566655E+01   0.0000000000E+00     0.000  -1.
   21   -1    0    0  501  502   0.0000000000E+00   0.0000000000E+00  -6.5297265203E+01   6.5297265203E+01   0.0000000000E+00     0.000  -1.
   25    2    1    2    0    0   0.0000000000E+00   0.0000000000E+00  -5.4746985474E+00   1.2511983186E+02   1.2500000000E+02  2.877E-08  -1.
3000002    2    3    0    0    0  -1.0593080021E+01  -4.7212876213E+01   3.5574413203E+01   6.0883560174E+01   1.0000000000E+01  1.249E-09  -1.
3000002    2    3    0    0    0   1.0593080021E+01   4.7212876213E+01  -4.1049111751E+01   6.4236271686E+01   1.0000000000E+01  5.720E-10  -1.
3000001    1    4    0    0    0  -3.6846376610E+00  -1.6437665851E+01   6.8176519993E+00   1.8200378900E+01   1.0000000000E+00     0.000  -1.
3000022   2   4   0   0   0   -6.9084423604E+00   -3.0775210362E+01   2.8756761204E+01   4.2683181273E+01   2.5000000000E-01   8.823571E+00   0.
3000001    1    5    0    0    0   3.5003502933E+00   3.2669708096E+01  -2.3791233791E+01   4.0578135548E+01   1.0000000000E+00     0.000   1.
3000022   2   5   0   0   0   7.0927297281E+00   1.4543168117E+01   -1.7257877960E+01   2.3658136139E+01   2.5000000000E-01   9.865281E+00   0.
13    1    7    0    0    0  -5.2979156457E+00  -2.3562484713E+01   2.2003631267E+01   3.2671538225E+01   1.0500000000E-01     0.000  -1.
-13    1    7    0    0    0  -1.6105267147E+00  -7.2127256481E+00   6.7531299375E+00   1.0011643048E+01   1.0500000000E-01     0.000   1.
13    1    9    0    0    0   4.8400591302E+00   1.0012725052E+01  -1.1904721441E+01   1.6291539306E+01   1.0500000000E-01     0.000  -1.
-13    1    9    0    0    0   2.2526705979E+00   4.5304430651E+00  -5.3531565181E+00   7.3665968328E+00   1.0500000000E-01     0.000   1.
</event>
<event>
 13   1  9.2978750E-05  1.2500000E+02  7.5467720E-03  1.2380620E-01
   21   -1    0    0  502  501   0.0000000000E+00   0.0000000000E+00   8.5833989262E+01   8.5833989262E+01   0.0000000000E+00     0.000   1.
   21   -1    0    0  501  502   0.0000000000E+00   0.0000000000E+00  -4.5509360960E+01   4.5509360960E+01   0.0000000000E+00     0.000   1.
   25    2    1    2    0    0   0.0000000000E+00   0.0000000000E+00   4.0324628301E+01   1.3134335022E+02   1.2500000000E+02  1.894E-09  -1.
3000002    2    3    0    0    0  -3.7298868779E+01  -4.2705126325E+01  -5.3886976480E+00   5.7827082660E+01   1.0000000000E+01  6.133E-10   1.
3000002    2    3    0    0    0   3.7298868779E+01   4.2705126325E+01   4.5713325949E+01   7.3516267560E+01   1.0000000000E+01  3.923E-10   1.
3000001    1    4    0    0    0  -3.3425374461E+01  -3.3803226509E+01  -2.1786575783E+00   4.7598953026E+01   1.0000000000E+00     0.000   1.
3000022   2   4   0   0   0   -3.8734943172E+00   -8.9018998165E+00   -3.2100400697E+00   1.0228129634E+01   2.5000000000E-01   3.872642E+00   0.
3000001    1    5    0    0    0   1.5393340007E+01   1.3663085729E+01   1.1608296066E+01   2.3651371329E+01   1.0000000000E+00     0.000   1.
3000022   2   5   0   0   0   2.1905528772E+01   2.9042040596E+01   3.4105029883E+01   4.9864896231E+01   2.5000000000E-01   4.756145E+00   0.
13    1    7    0    0    0  -2.8968792671E+00  -6.7180163338E+00  -2.4181491532E+00   7.7059797090E+00   1.0500000000E-01     0.000   1.
-13    1    7    0    0    0  -9.7661505011E-01  -2.1838834827E+00  -7.9189091654E-01   2.5221499254E+00   1.0500000000E-01     0.000  -1.
13    1    9    0    0    0   1.1645991687E+01   1.5328966814E+01   1.8037215589E+01   2.6381025704E+01   1.0500000000E-01     0.000  -1.
-13    1    9    0    0    0   1.0259537085E+01   1.3713073782E+01   1.6067814294E+01   2.3483870527E+01   1.0500000000E-01     0.000   1.
</event>
<event>
 13   1  9.2978750E-05  1.2500000E+02  7.5467720E-03  1.2380620E-01
   21   -1    0    0  502  501   0.0000000000E+00   0.0000000000E+00   1.4713536682E+01   1.4713536682E+01   0.0000000000E+00     0.000   1.
   21   -1    0    0  501  502   0.0000000000E+00   0.0000000000E+00  -2.6548681561E+02   2.6548681561E+02   0.0000000000E+00     0.000   1.
   25    2    1    2    0    0   0.0000000000E+00   0.0000000000E+00  -2.5077327893E+02   2.8020035229E+02   1.2500000000E+02  6.251E-08  -1.
3000002    2    3    0    0    0   1.0504791436E+01  -5.7362116573E+01  -8.0248141974E+01   9.9702193311E+01   1.0000000000E+01  1.069E-09   1.
3000002    2    3    0    0    0  -1.0504791436E+01   5.7362116573E+01  -1.7052513696E+02   1.8049815898E+02   1.0000000000E+01  2.400E-09   1.
3000001    1    4    0    0    0   8.2197141621E+00  -3.5273554962E+01  -5.7086563396E+01   6.7614074725E+01   1.0000000000E+00     0.000  -1.
3000022   2   4   0   0   0   2.2850772742E+00   -2.2088561611E+01   -2.3161578578E+01   3.2088118586E+01   2.5000000000E-01   6.414563E+00   0.
3000001    1    5    0    0    0  -1.0555171120E+01   3.4710021963E+01  -9.7270040808E+01   1.0382031642E+02   1.0000000000E+00     0.000  -1.
3000022   2   5   0   0   0   5.0379684041E-02   2.2652094610E+01   -7.3255096149E+01   7.6677842563E+01   2.5000000000E-01   4.876634E+00   0.
13    1    7    0    0    0   1.6334887029E+00  -1.5378429298E+01  -1.6100745925E+01   2.2325084935E+01   1.0500000000E-01     0.000  -1.
-13    1    7    0    0    0   6.5158857128E-01  -6.7101323131E+00  -7.0608326527E+00   9.7630336512E+00   1.0500000000E-01     0.000   1.
13    1    9    0    0    0  -2.3367868500E-02   1.2141606755E+01  -3.9415000209E+01   4.1242846981E+01   1.0500000000E-01     0.000   1.
-13    1    9    0    0    0   7.3747552541E-02   1.0510487855E+01  -3.3840095940E+01   3.5434995581E+01   1.0500000000E-01     0.000  -1.
</event>
<event>
 13   1  9.2978750E-05  1.2500000E+02  7.5467720E-03  1.2380620E-01
   21   -1    0    0  502  501   0.0000000000E+00   0.0000000000E+00   8.0278355034E+00   8.0278355034E+00   0.0000000000E+00     0.000   1.
   21   -1    0    0  501  502   0.0000000000E+00   0.0000000000E+00  -4.8658819657E+02   4.8658819657E+02   0.0000000000E+00     0.000   1.
   25    2    1    2    0    0   0.0000000000E+00   0.0000000000E+00  -4.7856036107E+02   4.9461603208E+02   1.2500000000E+02  1.318E-08  -1.
3000002    2    3    0    0    0  -1.1041669798E+01  -5.4313370788E+01  -3.4651142377E+02   3.5105843890E+02   1.0000000000E+01  6.147E-11  -1.
3000002    2    3    0    0    0   1.1041669798E+01   5.4313370788E+01  -1.3204893730E+02   1.4355759318E+02   1.0000000000E+01  2.391E-09  -1.
3000001    1    4    0    0    0  -1.2863273225E+01  -4.8127638741E+01  -3.1076195069E+02   3.1473119230E+02   1.0000000000E+00     0.000  -1.
3000022   2   4   0   0   0   1.8216034276E+00   -6.1857320471E+00   -3.5749473074E+01   3.6327246594E+01   2.5000000000E-01   9.943782E+00   0.
3000001    1    5    0    0    0   1.0117600700E+01   5.3897078780E+01  -1.2601129459E+02   1.3743037258E+02   1.0000000000E+00     0.000  -1.
3000022   2   5   0   0   0   9.2406909787E-01   4.1629200728E-01   -6.0376427158E+00   6.1272206013E+00   2.5000000000E-01   1.865403E+01   -1.
13    1    7    0    0    0   7.5082416252E-01  -2.5467892766E+00  -1.4363769963E+01   1.4607490718E+01   1.0500000000E-01     0.000   1.
-13    1    7    0    0    0   1.0707792651E+00  -3.6389427705E+00  -2.1385703112E+01   2.1719755876E+01   1.0500000000E-01     0.000  -1.
13    1    9    0    0    0   4.6652300907E-01   2.3157942324E-01  -2.7150903420E+00   2.7665887501E+00   1.0500000000E-01     0.000  -1.
-13    1    9    0    0    0   4.5754608879E-01   1.8471258404E-01  -3.3225523738E+00   3.3606318512E+00   1.0500000000E-01     0.000  -1.
</event>
<event>
 13   1  9.2978750E-05  1.2500000E+02  7.5467720E-03  1.2380620E-01
   21   -1    0    0  502  501   0.0000000000E+00   0.0000000000E+00   1.2662363164E+02   1.2662363164E+02   0.0000000000E+00     0.000  -1.
   21   -1    0    0  501  502   0.0000000000E+00   0.0000000000E+00  -3.0849296845E+01   3.0849296845E+01   0.0000000000E+00     0.000  -1.
   25    2    1    2    0    0   0.0000000000E+00   0.0000000000E+00   9.5774334791E+01   1.5747292848E+02   1.2500000000E+02  4.444E-08  -1.
3000002    2    3    0    0    0   1.4952140767E+01   3.6525737798E+01   1.0762473685E+02   1.1506858832E+02   1.0000000000E+01  1.611E-10   1.
3000002    2    3    0    0    0  -1.4952140767E+01  -3.6525737798E+01  -1.1850402064E+01   4.2404340159E+01   1.0000000000E+01  1.870E-10   1.
3000001    1    4    0    0    0   1.8454686503E+00   1.7401325740E+01   4.6798557586E+01   4.9973161639E+01   1.0000000000E+00     0.000   1.
3000022   2   4   0   0   0   1.3106672117E+01   1.9124412058E+01   6.0826179268E+01   6.5095426682E+01   2.5000000000E-01   2.294175E+00   0.
3000001    1    5    0    0    0  -2.7011505446E-02  -1.1701899959E+01  -3.1512302789E+00   1.2159993608E+01   1.0000000000E+00     0.000   1.
3000022   2   5   0   0   0   -1.4925129262E+01   -2.4823837839E+01   -8.6991717846E+00   3.0244346551E+01   2.5000000000E-01   1.992167E+00   0.
13    1    7    0    0    0   9.9851391252E+00   1.4591306430E+01   4.6351241626E+01   4.9609050101E+01   1.0500000000E-01     0.000  -1.
-13    1    7    0    0    0   3.1215329918E+00   4.5331056280E+00   1.4474937642E+01   1.5486376581E+01   1.0500000000E-01     0.000   1.
13    1    9    0    0    0  -1.1127717711E+01  -1.8562047290E+01  -6.4977496455E+00   2.2596625335E+01   1.0500000000E-01     0.000   1.
-13    1    9    0    0    0  -3.7974115505E+00  -6.2617905492E+00  -2.2014221391E+00   7.6477212162E+00   1.0500000000E-01     0.000  -1.
</event>
<event>
 13   1  9.2978750E-05  1.2500000E+02  7.5467720E-03  1.2380620E-01
   21   -1    0    0  502  501   0.0000000000E+00   0.0000000000E+00   6.7315061046E+00   6.7315061046E+00   0.0000000000E+00     0.000  -1.
   21   -1    0    0  501  502   0.0000000000E+00   0.0000000000E+00  -5.8029361324E+02   5.8029361324E+02   0.0000000000E+00     0.000  -1.
   25    2    1    2    0    0   0.0000000000E+00   0.0000000000E+00  -5.7356210714E+02   5.8702511935E+02   1.2500000000E+02  6.757E-09  -1.
3000002    2    3    0    0    0   3.3962626881E+01   6.4697810285E+00  -4.6817963709E+01   5.9052856129E+01   1.0000000000E+01  1.277E-09   1.
3000002    2    3    0    0    0  -3.3962626881E+01  -6.4697810285E+00  -5.2674414343E+02   5.2797226322E+02   1.0000000000E+01  1.174E-10   1.
3000001    1    4    0    0    0   1.4826302734E+00   2.6643771172E+00  -3.1501845736E+00   4.4967500262E+00   1.0000000000E+00     0.000  -1.
3000022   2   4   0   0   0   3.2479996607E+01   3.8054039113E+00   -4.3667779135E+01   5.4556106103E+01   2.5000000000E-01   3.893406E+00   0.
3000001    1    5    0    0    0  -1.8123055297E+00  -1.2472440753E+00  -8.2585517406E+01   8.2620867548E+01   1.0000000000E+00     0.000  -1.
3000022   2   5   0   0   0   -3.2150321351E+01   -5.2225369532E+00   -4.4415862603E+02   4.4535139567E+02   2.5000000000E-01   2.880147E+01   0.
13    1    7    0    0    0   2.1946000540E+01   2.5519368895E+00  -2.9421783158E+01   3.6793908066E+01   1.0500000000E-01     0.000   1.
-13    1    7    0    0    0   1.0533996067E+01   1.2534670218E+00  -1.4245995977E+01   1.7762198037E+01   1.0500000000E-01     0.000  -1.
13    1    9    0    0    0  -7.5766464413E+00  -1.2429178166E+00  -1.0457483309E+02   1.0485636440E+02   1.0500000000E-01     0.000   1.
-13    1    9    0    0    0  -2.4573674910E+01  -3.9796191366E+00  -3.3958379294E+02   3.4049503127E+02   1.0500000000E-01     0.000  -1.
</event>
<event>
 13   1  9.2978750E-05  1.2500000E+02  7.5467720E-03  1.2380620E-01
   21   -1    0    0  502  501   0.0000000000E+00   0.0000000000E+00   5.0100821158E+01   5.0100821158E+01   0.0000000000E+00     0.000   1.
   21   -1    0    0  501  502   0.0000000000E+00   0.0000000000E+00  -7.7967783955E+01   7.7967783955E+01   0.0000000000E+00     0.000   1.
   25    2    1    2    0    0   0.0000000000E+00   0.0000000000E+00  -2.7866962797E+01   1.2806860511E+02   1.2500000000E+02  2.798E-08  -1.
3000002    2    3    0    0    0   4.6005384504E+01   2.9403737742E+01   1.5497561076E+01   5.7630283670E+01   1.0000000000E+01  1.557E-09   1.
3000002    2    3    0    0    0  -4.6005384504E+01  -2.9403737742E+01  -4.3364523873E+01   7.0438321440E+01   1.0000000000E+01  2.017E-10   1.
3000001    1    4    0    0    0   3.2507017220E+01   2.1156893925E+01   1.5580255662E+01   4.1809863616E+01   1.0000000000E+00     0.000   1.
3000022   2   4   0   0   0   1.3498367284E+01   8.2468438175E+00   -8.2694586844E-02   1.5820420054E+01   2.5000000000E-01   5.048034E+00   0.
3000001    1    5    0    0    0  -1.2290260461E+01  -3.0662535025E+00  -9.1949357441E+00   1.5684363426E+01   1.0000000000E+00     0.000  -1.
3000022   2   5   0   0   0   -3.3715124043E+01   -2.6337484240E+01   -3.4169588128E+01   5.4753958014E+01   2.5000000000E-01   1.076822E+01   0.
13    1    7    0    0    0   4.8967252845E+00   2.9867866183E+00  -8.8325416731E-02   5.7373895802E+00   1.0500000000E-01     0.000  -1.
-13    1    7    0    0    0   8.6016419997E+00   5.2600571992E+00   5.6308298862E-03   1.0083030474E+01   1.0500000000E-01     0.000   1.
13    1    9    0    0    0  -1.3526224644E+01  -1.0606156547E+01  -1.3798487037E+01   2.2042199966E+01   1.0500000000E-01     0.000  -1.
-13    1    9    0    0    0  -2.0188899399E+01  -1.5731327693E+01  -2.0371101091E+01   3.2711758048E+01   1.0500000000E-01     0.000   1.
</event>
<event>
 13   1  9.2978750E-05  1.2500000E+02  7.5467720E-03  1.2380620E-01
   21   -1    0    0  502  501   0.0000000000E+00   0.0000000000E+00   1.4607759117E+02   1.4607759117E+02   0.0000000000E+00     0.000   1.
   21   -1    0    0  501  502   0.0000000000E+00   0.0000000000E+00  -2.6740925619E+01   2.6740925619E+01   0.0000000000E+00     0.000   1.
   25    2    1    2    0    0   0.0000000000E+00   0.0000000000E+00   1.1933666555E+02   1.7281851679E+02   1.2500000000E+02  6.021E-09  -1.
3000002    2    3    0    0    0  -3.9557145247E+01   1.4674669863E+01  -2.5637866352E+00   4.3436006695E+01   1.0000000000E+01  1.618E-10   1.
3000002    2    3    0    0    0   3.9557145247E+01  -1.4674669863E+01   1.2190045219E+02   1.2938251010E+02   1.0000000000E+01  2.574E-10   1.
3000001    1    4    0    0    0  -2.2780613987E+01   1.3493208632E+01  -2.5278361385E+00   2.6616029162E+01   1.0000000000E+00     0.000  -1.
3000022   2   4   0   0   0   -1.6776531260E+01   1.1814612304E+00   -3.5950496672E-02   1.6819977533E+01   2.5000000000E-01   8.903509E-01   0.
3000001    1    5    0    0    0   3.6471851624E+00  -1.9757496000E+00   5.8483080862E+00   7.2393544990E+00   1.0000000000E+00     0.000  -1.
3000022   2   5   0   0   0   3.5909960084E+01   -1.2698920263E+01   1.1605214410E+02   1.2214315560E+02   2.5000000000E-01   2.766519E+01   0.
13    1    7    0    0    0  -1.2644304575E+01   9.0101589764E-01  -4.8684613370E-02   1.2676894850E+01   1.0500000000E-01     0.000   1.
-13    1    7    0    0    0  -4.1322266849E+00   2.8044533278E-01   1.2734116697E-02   4.1430826829E+00   1.0500000000E-01     0.000  -1.
13    1    9    0    0    0   1.0124671859E+01  -3.6230864356E+00   3.2750618963E+01   3.4470999449E+01   1.0500000000E-01     0.000   1.
-13    1    9    0    0    0   2.5785288226E+01  -9.0758338270E+00   8.3301525137E+01   8.7672156148E+01   1.0500000000E-01     0.000  -1.
</event>
<event>
 13   1  9.2978750E-05  1.2500000E+02  7.5467720E-03  1.2380620E-01
   21   -1    0    0  502  501   0.0000000000E+00   0.0000000000E+00   8.6082573482E+00   8.6082573482E+00   0.0000000000E+00     0.000   1.
   21   -1    0    0  501  502   0.0000000000E+00   0.0000000000E+00  -4.5377941690E+02   4.5377941690E+02   0.0000000000E+00     0.000   1.
   25    2    1    2    0    0   0.0000000000E+00   0.0000000000E+00  -4.4517115955E+02   4.6238767425E+02   1.2500000000E+02  1.345E-07  -1.
3000002    2    3    0    0    0  -5.9685424372E+01   8.8210653028E+00  -2.7025793110E+02   2.7709115900E+02   1.0000000000E+01  8.183E-10   1.
3000002    2    3    0    0    0   5.9685424372E+01  -8.8210653028E+00  -1.7491322845E+02   1.8529651525E+02   1.0000000000E+01  3.549E-10   1.
3000001    1    4    0    0    0  -5.2402974571E+01   4.6252807895E+00  -2.3888952221E+02   2.4461534864E+02   1.0000000000E+00     0.000   1.
3000022   2   4   0   0   0   -7.2824498014E+00   4.1957845133E+00   -3.1368408887E+01   3.2475810365E+01   2.5000000000E-01   1.223029E+00   0.
3000001    1    5    0    0    0   4.2010781637E+01  -2.7418163192E+00  -1.1158194341E+02   1.1926421687E+02   1.0000000000E+00     0.000   1.
3000022   2   5   0   0   0   1.7674642735E+01   -6.0792489836E+00   -6.3331285036E+01   6.6032298372E+01   2.5000000000E-01   2.832467E+00   0.
13    1    7    0    0    0  -4.1245238975E+00   2.4353441787E+00  -1.7715565106E+01   1.8351971847E+01   1.0500000000E-01     0.000  -1.
-13    1    7    0    0    0  -3.1579259039E+00   1.7604403346E+00  -1.3652843780E+01   1.4123838518E+01   1.0500000000E-01     0.000   1.
13    1    9    0    0    0   1.2458690572E+01  -4.2385696497E+00  -4.4562303779E+01   4.6464980217E+01   1.0500000000E-01     0.000   1.
-13    1    9    0    0    0   5.2159521630E+00  -1.8406793338E+00  -1.8768981256E+01   1.9567318155E+01   1.0500000000E-01     0.000  -1.
</event>
<event>
 13   1  9.2978750E-05  1.2500000E+02  7.5467720E-03  1.2380620E-01
   21   -1    0    0  502  501   0.0000000000E+00   0.0000000000E+00   4.7595454768E+02   4.7595454768E+02   0.0000000000E+00     0.000  -1.
   21   -1    0    0  501  502   0.0000000000E+00   0.0000000000E+00  -8.2071912519E+00   8.2071912519E+00   0.0000000000E+00     0.000  -1.
   25    2    1    2    0    0   0.0000000000E+00   0.0000000000E+00   4.6774735643E+02   4.8416173893E+02   1.2500000000E+02  7.216E-09  -1.
3000002    2    3    0    0    0   4.7844076245E+01  -2.0774807547E+01   1.0625456623E+02   1.1878838792E+02   1.0000000000E+01  2.964E-10   1.
3000002    2    3    0    0    0  -4.7844076245E+01   2.0774807547E+01   3.6149279020E+02   3.6537335101E+02   1.0000000000E+01  4.283E-10   1.
3000001    1    4    0    0    0   2.4760177160E+01  -7.1232179626E+00   6.0280711157E+01   6.5563486368E+01   1.0000000000E+00     0.000  -1.
3000022   2   4   0   0   0   2.3083899085E+01   -1.3651589585E+01   4.5973855076E+01   5.3224901557E+01   2.5000000000E-01   9.294080E+00   0.
3000001    1    5    0    0    0  -3.3887006110E+01   1.1458314051E+01   2.2046619142E+02   2.2335165928E+02   1.0000000000E+00     0.000   1.
3000022   2   5   0   0   0   -1.3957070135E+01   9.3164934964E+00   1.4102659877E+02   1.4202169172E+02   2.5000000000E-01   2.577354E+00   0.
13    1    7    0    0    0   7.6189981958E+00  -4.5438382777E+00   1.5125108115E+01   1.7534979906E+01   1.0500000000E-01     0.000   1.
-13    1    7    0    0    0   1.5464900890E+01  -9.1077513070E+00   3.0848746961E+01   3.5689921651E+01   1.0500000000E-01     0.000  -1.
13    1    9    0    0    0  -4.8986308415E+00   3.2091342605E+00   4.9429487710E+01   4.9775299166E+01   1.0500000000E-01     0.000   1.
-13    1    9    0    0    0  -9.0584392934E+00   6.1073592359E+00   9.1597111064E+01   9.2246392555E+01   1.0500000000E-01     0.000  -1.
</event>
<event>
 13   1  9.2978750E-05  1.2500000E+02  7.5467720E-03  1.2380620E-01
   21   -1    0    0  502  501   0.0000000000E+00   0.0000000000E+00   1.2390652518E+01   1.2390652518E+01   0.0000000000E+00     0.000  -1.
   21   -1    0    0  501  502   0.0000000000E+00   0.0000000000E+00  -3.1525781183E+02   3.1525781183E+02   0.0000000000E+00     0.000  -1.
   25    2    1    2    0    0   0.0000000000E+00   0.0000000000E+00  -3.0286715931E+02   3.2764846434E+02   1.2500000000E+02  2.565E-08  -1.
3000002    2    3    0    0    0   5.9046373061E+01  -1.7278095908E+01  -1.6351473281E+02   1.7499164156E+02   1.0000000000E+01  3.505E-10  -1.
3000002    2    3    0    0    0  -5.9046373061E+01   1.7278095908E+01  -1.3935242650E+02   1.5265682278E+02   1.0000000000E+01  3.009E-10  -1.
3000001    1    4    0    0    0   3.1610628194E+01  -9.7815719635E+00  -1.0157928902E+02   1.0683755390E+02   1.0000000000E+00     0.000   1.
3000022   2   4   0   0   0   2.7435744867E+01   -7.4965239441E+00   -6.1935443788E+01   6.8154087661E+01   2.5000000000E-01   4.774993E+00   0.
3000001    1    5    0    0    0  -3.5759157670E+01   1.1061195245E+01  -9.6171855980E+01   1.0320413403E+02   1.0000000000E+00     0.000  -1.
3000022   2   5   0   0   0   -2.3287215391E+01   6.2169006623E+00   -4.3180570519E+01   4.9452688753E+01   2.5000000000E-01   3.889834E+00   0.
13    1    7    0    0    0   1.0600278928E+01  -2.9159697776E+00  -2.4082142691E+01   2.6473182935E+01   1.0500000000E-01     0.000  -1.
-13    1    7    0    0    0   1.6835465940E+01  -4.5805541665E+00  -3.7853301096E+01   4.1680904726E+01   1.0500000000E-01     0.000   1.
13    1    9    0    0    0  -1.4539570790E+01   3.9436863138E+00  -2.6997898306E+01   3.0916812876E+01   1.0500000000E-01     0.000   1.
-13    1    9    0    0    0  -8.7476446019E+00   2.2732143484E+00  -1.6182672214E+01   1.8535875877E+01   1.0500000000E-01     0.000  -1.
</event>
<event>
 13   1  9.2978750E-05  1.2500000E+02  7.5467720E-03  1.2380620E-01
   21   -1    0    0  502  501   0.0000000000E+00   0.0000000000E+00   2.1098283354E+02   2.1098283354E+02   0.0000000000E+00     0.000   1.
   21   -1    0    0  501  502   0.0000000000E+00   0.0000000000E+00  -1.8514539474E+01   1.8514539474E+01   0.0000000000E+00     0.000   1.
   25    2    1    2    0    0   0.0000000000E+00   0.0000000000E+00   1.9246829407E+02   2.2949737301E+02   1.2500000000E+02  4.821E-10  -1.
3000002    2    3    0    0    0   2.6453278637E+01  -5.5371554190E+01   8.4555093056E+01   1.0495403149E+02   1.0000000000E+01  2.702E-09   1.
3000002    2    3    0    0    0  -2.6453278637E+01   5.5371554190E+01   1.0791320101E+02   1.2454334152E+02   1.0000000000E+01  2.930E-10   1.
3000001    1    4    0    0    0   1.8818350236E+00  -1.3160096395E+01   1.8381690793E+01   2.2707179407E+01   1.0000000000E+00     0.000  -1.
3000022   2   4   0   0   0   2.4571443614E+01   -4.2211457795E+01   6.6173402262E+01   8.2246852082E+01   2.5000000000E-01   2.445220E-01   0.
3000001    1    5    0    0    0  -8.8742399635E-01   3.7579139786E+00   1.2199385397E+01   1.2834891619E+01   1.0000000000E+00     0.000  -1.
3000022   2   5   0   0   0   -2.5565854641E+01   5.1613640212E+01   9.5713815618E+01   1.1170844990E+02   2.5000000000E-01   5.018191E+00   0.
13    1    7    0    0    0   1.6581203269E+01  -2.8532704447E+01   4.4633392177E+01   5.5508578140E+01   1.0500000000E-01     0.000  -1.
-13    1    7    0    0    0   7.9902403452E+00  -1.3678753348E+01   2.1540010086E+01   2.6738273943E+01   1.0500000000E-01     0.000   1.
13    1    9    0    0    0  -7.8558307720E+00   1.5821154550E+01   2.9267555089E+01   3.4185140255E+01   1.0500000000E-01     0.000  -1.
-13    1    9    0    0    0  -1.7710023869E+01   3.5792485662E+01   6.6446260530E+01   7.7523309647E+01   1.0500000000E-01     0.000   1.
</event>
<event>
 13   1  9.2978750E-05  1.2500000E+02  7.5467720E-03  1.2380620E-01
   21   -1    0    0  502  501   0.0000000000E+00   0.0000000000E+00   1.1000506677E+02   1.1000506677E+02   0.0000000000E+00     0.000   1.
   21   -1    0    0  501  502   0.0000000000E+00   0.0000000000E+00  -3.5509728005E+01   3.5509728005E+01   0.0000000000E+00     0.000   1.
   25    2    1    2    0    0   0.0000000000E+00   0.0000000000E+00   7.4495338761E+01   1.4551479477E+02   1.2500000000E+02  6.051E-08  -1.
3000002    2    3    0    0    0  -5.4135239761E+01   1.9639058190E+01   6.3014771423E+01   8.5948695209E+01   1.0000000000E+01  2.158E-09   1.
3000002    2    3    0    0    0   5.4135239761E+01  -1.9639058190E+01   1.1480567338E+01   5.9566099561E+01   1.0000000000E+01  1.134E-09   1.
3000001    1    4    0    0    0  -2.5164820302E+01   1.3936612336E+01   2.8153477786E+01   4.0263080554E+01   1.0000000000E+00     0.000   1.
3000022   2   4   0   0   0   -2.8970419459E+01   5.7024458544E+00   3.4861293637E+01   4.5685614655E+01   2.5000000000E-01   3.351413E+00   0.
3000001    1    5    0    0    0   5.0507715622E+01  -1.5387973235E+01   1.1069758576E+01   5.3957007076E+01   1.0000000000E+00     0.000   1.
3000022   2   5   0   0   0   3.6275241385E+00   -4.2510849551E+00   4.1080876188E-01   5.6090924854E+00   2.5000000000E-01   2.748500E+00   0.
13    1    7    0    0    0  -1.7068708915E+01   3.3702251228E+00   2.0639456713E+01   2.6994396452E+01   1.0500000000E-01     0.000   1.
-13    1    7    0    0    0  -1.1901710544E+01   2.3322207316E+00   1.4221836925E+01   1.8691218203E+01   1.0500000000E-01     0.000  -1.
13    1    9    0    0    0   2.5263341253E+00  -3.0119757979E+00   3.1900092425E-01   3.9455226409E+00   1.0500000000E-01     0.000   1.
-13    1    9    0    0    0   1.1011900132E+00  -1.2391091572E+00   9.1807837639E-02   1.6635698446E+00   1.0500000000E-01     0.000  -1.
</event>
<event>
 13   1  9.2978750E-05  1.2500000E+02  7.5467720E-03  1.2380620E-01
   21   -1    0    0  502  501   0.0000000000E+00   0.0000000000E+00   6.1494679960E+01   6.1494679960E+01   0.0000000000E+00     0.000  -1.
   21   -1    0    0  501  502   0.0000000000E+00   0.0000000000E+00  -6.3521755094E+01   6.3521755094E+01   0.0000000000E+00     0.000  -1.
   25    2    1    2    0    0   0.0000000000E+00   0.0000000000E+00  -2.0270751349E+00   1.2501643505E+02   1.2500000000E+02  4.982E-08  -1.
3000002    2    3    0    0    0   2.6643396046E+01  -5.3684569571E+01   1.3628962401E+01   6.2270797160E+01   1.0000000000E+01  3.211E-10   1.
3000002    2    3    0    0    0  -2.6643396046E+01   5.3684569571E+01  -1.5656037536E+01   6.2745637890E+01   1.0000000000E+01  1.740E-10   1.
3000001    1    4    0    0    0   2.7389525074E+01  -5.1877728636E+01   1.2465646086E+01   5.9982306929E+01   1.0000000000E+00     0.000   1.
3000022   2   4   0   0   0   -7.4612902776E-01   -1.8068409343E+00   1.1633163150E+00   2.2884902308E+00   2.5000000000E-01   1.662013E+01   0.
3000001    1    5    0    0    0  -1.4840987047E+01   3.3230935726E+01  -4.6935816649E+00   3.6709395182E+01   1.0000000000E+00     0.000  -1.
3000022   2   5   0   0   0   -1.1802408999E+01   2.0453633845E+01   -1.0962455871E+01   2.6036242708E+01   2.5000000000E-01   1.149814E+00   0.
13    1    7    0    0    0  -2.1009616189E-01  -4.7036973431E-01   2.7520670356E-01   5.9342380630E-01   1.0500000000E-01     0.000   1.
-13    1    7    0    0    0  -5.3603286587E-01  -1.3364712000E+00   8.8810961149E-01   1.6950664245E+00   1.0500000000E-01     0.000  -1.
13    1    9    0    0    0  -3.6723083420E+00   6.3592449660E+00  -3.4627965093E+00   8.1195954186E+00   1.0500000000E-01     0.000   1.
-13    1    9    0    0    0  -8.1301006573E+00   1.4094388879E+01  -7.4996593612E+00   1.7916647290E+01   1.0500000000E-01     0.000  -1.
</event>
<event>
 13   1  9.2978750E-05  1.2500000E+02  7.5467720E-03  1.2380620E-01
   21   -1    0    0  502  501   0.0000000000E+00   0.0000000000E+00   2.9441004560E+01   2.9441004560E+01   0.0000000000E+00     0.000   1.
   21   -1    0    0  501  502   0.0000000000E+00   0.0000000000E+00  -1.3268059492E+02   1.3268059492E+02   0.0000000000E+00     0.000   1.
   25    2    1    2    0    0   0.0000000000E+00   0.0000000000E+00  -1.0323959036E+02   1.6212159948E+02   1.2500000000E+02  1.099E-08  -1.
3000002    2    3    0    0    0  -1.8038118023E+01  -3.8814227944E+01   6.0091884078E+00   4.4362465418E+01   1.0000000000E+01  1.960E-10  -1.
3000002    2    3    0    0    0   1.8038118023E+01   3.8814227944E+01  -1.0924877877E+02   1.1775913406E+02   1.0000000000E+01  1.361E-09  -1.
3000001    1    4    0    0    0  -1.2739327149E+01  -1.5924472359E+01   3.7330343557E+00   2.0756079148E+01   1.0000000000E+00     0.000  -1.
3000022   2   4   0   0   0   -5.2987908742E+00   -2.2889755585E+01   2.2761540521E+00   2.3606386270E+01   2.5000000000E-01   7.745665E+00   0.
3000001    1    5    0    0    0   9.8289006537E-01   2.7232305142E-01  -1.5547091550E+00   2.1112444864E+00   1.0000000000E+00     0.000  -1.
3000022   2   5   0   0   0   1.7055227957E+01   3.8541904892E+01   -1.0769406961E+02   1.1564788958E+02   2.5000000000E-01   7.123615E-02   0.
13    1    7    0    0    0  -2.1826625293E+00  -9.6779159781E+00   9.9388263646E-01   9.9712035930E+00   1.0500000000E-01     0.000   1.
-13    1    7    0    0    0  -3.1161283449E+00  -1.3211839607E+01   1.2822714156E+00   1.3635182677E+01   1.0500000000E-01     0.000  -1.
13    1    9    0    0    0   1.2004180323E+01   2.7235791948E+01  -7.6064013675E+01   8.1680070455E+01   1.0500000000E-01     0.000  -1.
-13    1    9    0    0    0   5.0510476340E+00   1.1306112945E+01  -3.1630055938E+01   3.3967819120E+01   1.0500000000E-01     0.000   1.
</event>
<event>
 13   1  9.2978750E-05  1.2500000E+02  7.5467720E-03  1.2380620E-01
   21   -1    0    0  502  501   0.0000000000E+00   0.0000000000E+00   1.0703984557E+02   1.0703984557E+02   0.0000000000E+00     0.000  -1.
   21   -1    0    0  501  502   0.0000000000E+00   0.0000000000E+00  -3.6493419615E+01   3.6493419615E+01   0.0000000000E+00     0.000  -1.
   25    2    1    2    0    0   0.0000000000E+00   0.0000000000E+00   7.0546425958E+01   1.4353326519E+02   1.2500000000E+02  1.173E-07  -1.
3000002    2    3    0    0    0   2.7275628217E+01  -3.8339742992E+01   8.1093983940E+01   9.4287486013E+01   1.0000000000E+01  5.602E-11  -1.
3000002    2    3    0    0    0  -2.7275628217E+01   3.8339742992E+01  -1.0547557982E+01   4.9245779177E+01   1.0000000000E+01  2.985E-11  -1.
3000001    1    4    0    0    0   3.0833444905E-01  -4.6169736242E+00   1.0774898217E+01   1.1769024903E+01   1.0000000000E+00     0.000   1.
3000022   2   4   0   0   0   2.6967293768E+01   -3.3722769368E+01   7.0319085724E+01   8.2518461110E+01   2.5000000000E-01   3.190613E+00   0.
3000001    1    5    0    0    0  -2.0559672175E+01   2.2956530746E+01  -3.4717834799E+00   3.1028304890E+01   1.0000000000E+00     0.000   1.
3000022   2   5   0   0   0   -6.7159560420E+00   1.5383212246E+01   -7.0757745024E+00   1.8217474287E+01   2.5000000000E-01   1.565573E+01   0.
13    1    7    0    0    0   1.8388723774E+01  -2.3009837125E+01   4.8062493826E+01   5.6370312261E+01   1.0500000000E-01     0.000   1.
-13    1    7    0    0    0   8.5785699944E+00  -1.0712932243E+01   2.2256591897E+01   2.6148148850E+01   1.0500000000E-01     0.000  -1.
13    1    9    0    0    0  -2.3074555180E+00   5.3910656082E+00  -2.5126569896E+00   6.3806276734E+00   1.0500000000E-01     0.000   1.
-13    1    9    0    0    0  -4.4085005240E+00   9.9921466381E+00  -4.5631175128E+00   1.1836846613E+01   1.0500000000E-01     0.000  -1.
</event>
<event>
 13   1  9.2978750E-05  1.2500000E+02  7.5467720E-03  1.2380620E-01
   21   -1    0    0  502  501   0.0000000000E+00   0.0000000000E+00   3.4469520005E+00   3.4469520005E+00   0.0000000000E+00     0.000   1.
   21   -1    0    0  501  502   0.0000000000E+00   0.0000000000E+00  -1.1332475762E+03   1.1332475762E+03   0.0000000000E+00     0.000   1.
   25    2    1    2    0    0   0.0000000000E+00   0.0000000000E+00  -1.1298006242E+03   1.1366945282E+03   1.2500000000E+02  9.751E-09  -1.
3000002    2    3    0    0    0  -1.0257165966E+01   6.0708325998E+01  -5.2905312571E+02   5.3271748622E+02   1.0000000000E+01  1.029E-09  -1.
3000002    2    3    0    0    0   1.0257165966E+01  -6.0708325998E+01  -6.0074749849E+02   6.0397704198E+02   1.0000000000E+01  8.790E-11  -1.
3000001    1    4    0    0    0   1.2665853437E+00   1.9986403188E+01  -1.6794052074E+02   1.6913331741E+02   1.0000000000E+00     0.000   1.
3000022   2   4   0   0   0   -1.1523751310E+01   4.0721922809E+01   -3.6111260497E+02   3.6358416881E+02   2.5000000000E-01   1.782830E-01   0.
3000001    1    5    0    0    0   2.7891616720E+00  -4.2456611373E+01  -4.2557877651E+02   4.2770157620E+02   1.0000000000E+00     0.000  -1.
3000022   2   5   0   0   0   7.4680042944E+00   -1.8251714624E+01   -1.7516872198E+02   1.7627546578E+02   2.5000000000E-01   8.428905E+00   0.
13    1    7    0    0    0  -3.3654584281E+00   1.1944779607E+01  -1.0624884154E+02   1.0697117099E+02   1.0500000000E-01     0.000  -1.
-13    1    7    0    0    0  -8.1582928821E+00   2.8777143203E+01  -2.5486376344E+02   2.5661299782E+02   1.0500000000E-01     0.000   1.
13    1    9    0    0    0   2.8940316072E+00  -7.0075634043E+00  -6.6845762126E+01   6.7274425327E+01   1.0500000000E-01     0.000  -1.
-13    1    9    0    0    0   4.5739726873E+00  -1.1244151220E+01  -1.0832295985E+02   1.0900104045E+02   1.0500000000E-01     0.000   1.
</event>
<event>
 13   1  9.2978750E-05  1.2500000E+02  7.5467720E-03  1.2380620E-01
   21   -1    0    0  502  501   0.0000000000E+00   0.0000000000E+00   2.5506167212E+02   2.5506167212E+02   0.0000000000E+00     0.000   1.
   21   -1    0    0  501  502   0.0000000000E+00   0.0000000000E+00  -1.5314923515E+01   1.5314923515E+01   0.0000000000E+00     0.000   1.
   25    2    1    2    0    0   0.0000000000E+00   0.0000000000E+00   2.3974674860E+02   2.7037659563E+02   1.2500000000E+02  2.196E-08  -1.
3000002    2    3    0    0    0   5.0061200848E+01   1.0354992958E+00   4.1913223628E+01   6.6059930397E+01   1.0000000000E+01  1.351E-09   1.
3000002    2    3    0    0    0  -5.0061200848E+01  -1.0354992958E+00   1.9783352497E+02   2.0431666523E+02   1.0000000000E+01  4.841E-10   1.
3000001    1    4    0    0    0   8.2493164685E+00  -2.3156174867E+00   3.9608284068E+00   9.4921793183E+00   1.0000000000E+00     0.000  -1.
3000022   2   4   0   0   0   4.1811884380E+01   3.3511167824E+00   3.7952395221E+01   5.6567751079E+01   2.5000000000E-01   5.604460E+00   0.
3000001    1    5    0    0    0  -2.5575958650E+01  -1.7054005906E+00   8.1892250148E+01   8.5815958227E+01   1.0000000000E+00     0.000   1.
3000022   2   5   0   0   0   -2.4485242198E+01   6.6990129480E-01   1.1594127482E+02   1.1850070701E+02   2.5000000000E-01   2.842571E+00   0.
13    1    7    0    0    0   2.5711026421E+01   2.1132891475E+00   2.3298270647E+01   3.4761232872E+01   1.0500000000E-01     0.000   1.
-13    1    7    0    0    0   1.6100857959E+01   1.2378276350E+00   1.4654124575E+01   2.1806518207E+01   1.0500000000E-01     0.000  -1.
13    1    9    0    0    0  -9.9380284436E+00   2.0881850661E-01   4.7010703418E+01   4.8050236996E+01   1.0500000000E-01     0.000  -1.
-13    1    9    0    0    0  -1.4547213754E+01   4.6108278819E-01   6.8930571405E+01   7.0450470010E+01   1.0500000000E-01     0.000   1.
</event>
<event>
 13   1  9.2978750E-05  1.2500000E+02  7.5467720E-03  1.2380620E-01
   21   -1    0    0  502  501   0.0000000000E+00   0.0000000000E+00   3.8232006201E+02   3.8232006201E+02   0.0000000000E+00     0.000   1.
   21   -1    0    0  501  502   0.0000000000E+00   0.0000000000E+00  -1.0217224750E+01   1.0217224750E+01   0.0000000000E+00     0.000   1.
   25    2    1    2    0    0   0.0000000000E+00   0.0000000000E+00   3.7210283726E+02   3.9253728676E+02   1.2500000000E+02  4.050E-08  -1.
3000002    2    3    0    0    0   5.1648673440E+01   3.2571749389E+01   1.5836230723E+02   1.7002095365E+02   1.0000000000E+01  1.000E-10  -1.
3000002    2    3    0    0    0  -5.1648673440E+01  -3.2571749389E+01   2.1374053003E+02   2.2251633311E+02   1.0000000000E+01  4.324E-10  -1.
3000001    1    4    0    0    0   4.7050081018E+01   2.8472290529E+01   1.3310441608E+02   1.4402141171E+02   1.0000000000E+00     0.000  -1.
3000022   2   4   0   0   0   4.5985924221E+00   4.0994588599E+00   2.5257891154E+01   2.5999541934E+01   2.5000000000E-01   4.064933E+00   0.
3000001    1    5    0    0    0  -4.8855317775E+01  -2.8293923432E+01   2.0118443796E+02   2.0895828832E+02   1.0000000000E+00     0.000   1.
3000022   2   5   0   0   0   -2.7933556653E+00   -4.2778259574E+00   1.2556092064E+01   1.3558044797E+01   2.5000000000E-01   3.173351E+00   0.
13    1    7    0    0    0   2.1924738447E+00   1.8918203274E+00   1.2077078577E+01   1.2419854173E+01   1.0500000000E-01     0.000  -1.
-13    1    7    0    0    0   2.4061185774E+00   2.2076385325E+00   1.3180812577E+01   1.3579687761E+01   1.0500000000E-01     0.000   1.
13    1    9    0    0    0  -2.1302836048E+00  -3.2401588227E+00   9.5656881860E+00   1.0322313350E+01   1.0500000000E-01     0.000   1.
-13    1    9    0    0    0  -6.6307206049E-01  -1.0376671347E+00   2.9904038780E+00   3.2357314464E+00   1.0500000000E-01     0.000  -1.
</event>
<event>
 13   1  9.2978750E-05  1.2500000E+02  7.5467720E-03  1.2380620E-01
   21   -1    0    0  502  501   0.0000000000E+00   0.0000000000E+00   4.1050917117E+01   4.1050917117E+01   0.0000000000E+00     0.000  -1.
   21   -1    0    0  501  502   0.0000000000E+00   0.0000000000E+00  -9.5156217555E+01   9.5156217555E+01   0.0000000000E+00     0.000  -1.
   25    2    1    2    0    0   0.0000000000E+00   0.0000000000E+00  -5.4105300438E+01   1.3620713467E+02   1.2500000000E+02  2.512E-08  -1.
3000002    2    3    0    0    0  -5.9920927086E+01   1.4018840631E+01  -2.2277439649E+01   6.6206719544E+01   1.0000000000E+01  1.853E-10   1.
3000002    2    3    0    0    0   5.9920927086E+01  -1.4018840631E+01  -3.1827860789E+01   7.0000415126E+01   1.0000000000E+01  1.595E-10   1.
3000001    1    4    0    0    0  -5.3020100657E+01   1.4303409740E+01  -1.6950290139E+01   5.7480700584E+01   1.0000000000E+00     0.000   1.
3000022   2   4   0   0   0   -6.9008264286E+00   -2.8456910943E-01   -5.3271495103E+00   8.7260189594E+00   2.5000000000E-01   6.308557E-01   0.
3000001    1    5    0    0    0   4.3324703335E+01  -5.9796084588E+00  -2.0089256924E+01   4.8139005807E+01   1.0000000000E+00     0.000  -1.
3000022   2   5   0   0   0   1.6596223751E+01   -8.0392321718E+00   -1.1738603865E+01   2.1861409319E+01   2.5000000000E-01   4.800032E-02   0.
13    1    7    0    0    0  -2.7018672981E+00  -8.2525441142E-02  -2.0160686331E+00   3.3737894241E+00   1.0500000000E-01     0.000   1.
-13    1    7    0    0    0  -4.1989591305E+00  -2.0204366829E-01  -3.3110808772E+00   5.3522295353E+00   1.0500000000E-01     0.000  -1.
13    1    9    0    0    0   8.4409196153E+00  -4.0503423875E+00  -6.0287315339E+00   1.1136023811E+01   1.0500000000E-01     0.000  -1.
-13    1    9    0    0    0   8.1553041357E+00  -3.9888897843E+00  -5.7098723313E+00   1.0725385508E+01   1.0500000000E-01     0.000   1.
</event>
<event>
 13   1  9.2978750E-05  1.2500000E+02  7.5467720E-03  1.2380620E-01
   21   -1    0    0  502  501   0.0000000000E+00   0.0000000000E+00   4.5648015358E+01   4.5648015358E+01   0.0000000000E+00     0.000  -1.
   21   -1    0    0  501  502   0.0000000000E+00   0.0000000000E+00  -8.5573271244E+01   8.5573271244E+01   0.0000000000E+00     0.000  -1.
   25    2    1    2    0    0   0.0000000000E+00   0.0000000000E+00  -3.9925255886E+01   1.3122128660E+02   1.2500000000E+02  6.848E-08  -1.
3000002    2    3    0    0    0  -2.9525033509E+01   4.6281796048E+01  -4.9515437677E+01   7.4602351287E+01   1.0000000000E+01  4.756E-10  -1.
3000002    2    3    0    0    0   2.9525033509E+01  -4.6281796048E+01   9.5901817912E+00   5.6618935313E+01   1.0000000000E+01  5.856E-10  -1.
3000001    1    4    0    0    0  -6.8787075757E+00   7.0575761600E+00  -1.3451343350E+01   1.6705227837E+01   1.0000000000E+00     0.000   1.
3000022   2   4   0   0   0   -2.2646325934E+01   3.9224219888E+01   -3.6064094327E+01   5.7897123450E+01   2.5000000000E-01   3.412841E+00   0.
3000001    1    5    0    0    0   2.6694055588E+01  -3.4256408628E+01   7.7370027635E+00   4.4124090332E+01   1.0000000000E+00     0.000  -1.
3000022   2   5   0   0   0   2.8309779211E+00   -1.2025387420E+01   1.8531790277E+00   1.2494844981E+01   2.5000000000E-01   4.286355E+00   0.
13    1    7    0    0    0  -1.1069687001E+01   1.9269778829E+01  -1.7634352487E+01   2.8369768400E+01   1.0500000000E-01     0.000   1.
-13    1    7    0    0    0  -1.1576638932E+01   1.9954441060E+01  -1.8429741840E+01   2.9527355050E+01   1.0500000000E-01     0.000  -1.
13    1    9    0    0    0   7.7487056924E-01  -3.4758160001E+00   5.3050886811E-01   3.6019697285E+00   1.0500000000E-01     0.000   1.
-13    1    9    0    0    0   2.0561073518E+00  -8.5495714200E+00   1.3226701596E+00   8.8928752526E+00   1.0500000000E-01     0.000  -1.
</event>
<event>
 13   1  9.2978750E-05  1.2500000E+02  7.5467720E-03  1.2380620E-01
   21   -1    0    0  502  501   0.0000000000E+00   0.0000000000E+00   2.0010320096E+01   2.0010320096E+01   0.0000000000E+00     0.000   1.
   21   -1    0    0  501  502   0.0000000000E+00   0.0000000000E+00  -1.9521176979E+02   1.9521176979E+02   0.0000000000E+00     0.000   1.
   25    2    1    2    0    0   0.0000000000E+00   0.0000000000E+00  -1.7520144969E+02   2.1522208988E+02   1.2500000000E+02  2.449E-08  -1.
3000002    2    3    0    0    0   2.2700773051E+01  -3.3685594416E+01  -7.6500895169E+00   4.2527264642E+01   1.0000000000E+01  4.263E-09   1.
3000002    2    3    0    0    0  -2.2700773051E+01   3.3685594416E+01  -1.6755136017E+02   1.7269482524E+02   1.0000000000E+01  2.114E-09   1.
3000001    1    4    0    0    0   9.5641103366E+00  -6.6974401911E+00  -3.4657044575E+00   1.2220434486E+01   1.0000000000E+00     0.000   1.
3000022   2   4   0   0   0   1.3136662714E+01   -2.6988154225E+01   -4.1843850594E+00   3.0306830155E+01   2.5000000000E-01   7.754330E+00   0.
3000001    1    5    0    0    0  -1.5873891858E+01   1.6837822005E+01  -1.0673413359E+02   1.0921844151E+02   1.0000000000E+00     0.000   1.
3000022   2   5   0   0   0   -6.8268811930E+00   1.6847772411E+01   -6.0817226587E+01   6.3476383733E+01   2.5000000000E-01   5.411632E+00   0.
13    1    7    0    0    0   4.2268813180E+00  -8.8015307133E+00  -1.3672454403E+00   9.8597085995E+00   1.0500000000E-01     0.000  -1.
-13    1    7    0    0    0   8.9097813962E+00  -1.8186623512E+01  -2.8171396191E+00   2.0447121556E+01   1.0500000000E-01     0.000   1.
13    1    9    0    0    0  -3.5203934149E+00   8.8011420306E+00  -3.1895942895E+01   3.3274847393E+01   1.0500000000E-01     0.000   1.
-13    1    9    0    0    0  -3.3064877781E+00   8.0466303801E+00  -2.8921283692E+01   3.0201536340E+01   1.0500000000E-01     0.000  -1.
</event>
<event>
 13   1  9.2978750E-05  1.2500000E+02  7.5467720E-03  1.2380620E-01
   21   -1    0    0  502  501   0.0000000000E+00   0.0000000000E+00   5.9806140928E+00   5.9806140928E+00   0.0000000000E+00     0.000   1.
   21   -1    0    0  501  502   0.0000000000E+00   0.0000000000E+00  -6.5315199065E+02   6.5315199065E+02   0.0000000000E+00     0.000   1.
   25    2    1    2    0    0   0.0000000000E+00   0.0000000000E+00  -6.4717137655E+02   6.5913260474E+02   1.2500000000E+02  1.393E-08  -1.
3000002    2    3    0    0    0  -3.7802008045E+01   4.2582886537E+01  -1.9836232078E+02   2.0661535360E+02   1.0000000000E+01  5.918E-10  -1.
3000002    2    3    0    0    0   3.7802008045E+01  -4.2582886537E+01  -4.4880905577E+02   4.5251725114E+02   1.0000000000E+01  2.286E-10  -1.
3000001    1    4    0    0    0  -1.4019884696E+01   2.2655671451E+01  -9.8419544008E+01   1.0196687334E+02   1.0000000000E+00     0.000   1.
3000022   2   4   0   0   0   -2.3782123348E+01   1.9927215087E+01   -9.9942776771E+01   1.0464848026E+02   2.5000000000E-01   1.715476E+00   0.
3000001    1    5    0    0    0   1.7404018624E+01  -1.5703995141E+01  -1.5276188375E+02   1.5455325443E+02   1.0000000000E+00     0.000   1.
3000022   2   5   0   0   0   2.0397989421E+01   -2.6878891396E+01   -2.9604717202E+02   2.9796399671E+02   2.5000000000E-01   7.875743E+00   0.
13    1    7    0    0    0  -1.5275714815E+01   1.2778725526E+01  -6.3963662383E+01   6.6992569884E+01   1.0500000000E-01     0.000  -1.
-13    1    7    0    0    0  -8.5064085333E+00   7.1484895609E+00  -3.5979114388E+01   3.7655910377E+01   1.0500000000E-01     0.000   1.
13    1    9    0    0    0   1.0677340570E+01  -1.4027260798E+01  -1.5522061753E+02   1.5621850332E+02   1.0500000000E-01     0.000   1.
-13    1    9    0    0    0   9.7206488511E+00  -1.2851630598E+01  -1.4082655448E+02   1.4174549339E+02   1.0500000000E-01     0.000  -1.
</event>
<event>
 13   1  9.2978750E-05  1.2500000E+02  7.5467720E-03  1.2380620E-01
   21   -1    0    0  502  501   0.0000000000E+00   0.0000000000E+00   4.4248294437E+02   4.4248294437E+02   0.0000000000E+00     0.000  -1.
   21   -1    0    0  501  502   0.0000000000E+00   0.0000000000E+00  -8.8280238814E+00   8.8280238814E+00   0.0000000000E+00     0.000  -1.
   25    2    1    2    0    0   0.0000000000E+00   0.0000000000E+00   4.3365492049E+02   4.5131096825E+02   1.2500000000E+02  3.555E-08  -1.
3000002    2    3    0    0    0   3.4520115490E+01   5.1118459160E+01   2.2127108790E+02   2.2992526956E+02   1.0000000000E+01  9.512E-10   1.
3000002    2    3    0    0    0  -3.4520115490E+01  -5.1118459160E+01   2.1238383259E+02   2.2138569869E+02   1.0000000000E+01  9.251E-11   1.
3000001    1    4    0    0    0   1.6496921461E+01   1.9183301475E+01   1.0491726014E+02   1.0792950916E+02   1.0000000000E+00     0.000   1.
3000022   2   4   0   0   0   1.8023194029E+01   3.1935157684E+01   1.1635382776E+02   1.2199576040E+02   2.5000000000E-01   1.260345E+01   0.
3000001    1    5    0    0    0  -1.5521024328E+01  -1.4670638866E+01   7.3881299224E+01   7.6912783176E+01   1.0000000000E+00     0.000  -1.
3000022   2   5   0   0   0   -1.8999091162E+01   -3.6447820293E+01   1.3850253337E+02   1.4447291552E+02   2.5000000000E-01   2.543445E+00   0.
13    1    7    0    0    0   7.4806227956E+00   1.3359098271E+01   4.8712747290E+01   5.1062393183E+01   1.0500000000E-01     0.000  -1.
-13    1    7    0    0    0   1.0542571233E+01   1.8576059413E+01   6.7641080474E+01   7.0933367213E+01   1.0500000000E-01     0.000   1.
13    1    9    0    0    0  -9.3930240362E+00  -1.8057614984E+01   6.8818662507E+01   7.1765769652E+01   1.0500000000E-01     0.000   1.
-13    1    9    0    0    0  -9.6060671260E+00  -1.8390205309E+01   6.9683870860E+01   7.2707145866E+01   1.0500000000E-01     0.000  -1.
</event>
<event>
 13   1  9.2978750E-05  1.2500000E+02  7.5467720E-03  1.2380620E-01
   21   -1    0    0  502  501   0.0000000000E+00   0.0000000000E+00   1.0021012591E+01   1.0021012591E+01   0.0000000000E+00     0.000   1.
   21   -1    0    0  501  502   0.0000000000E+00   0.0000000000E+00  -3.8980591677E+02   3.8980591677E+02   0.0000000000E+00     0.000   1.
   25    2    1    2    0    0   0.0000000000E+00   0.0000000000E+00  -3.7978490418E+02   3.9982692937E+02   1.2500000000E+02  5.469E-08  -1.
3000002    2    3    0    0    0   5.5379034013E+00  -3.0170843052E+01  -1.8675319659E+01   3.7278890929E+01   1.0000000000E+01  5.497E-10   1.
3000002    2    3    0    0    0  -5.5379034013E+00   3.0170843052E+01  -3.6110958452E+02   3.6254803844E+02   1.0000000000E+01  8.442E-10   1.
3000001    1    4    0    0    0   8.0488216144E+00  -2.6745411523E+01  -1.5404115646E+01   3.1912181776E+01   1.0000000000E+00     0.000   1.
3000022   2   4   0   0   0   -2.5109182131E+00   -3.4254315291E+00   -3.2712040136E+00   5.3667091529E+00   2.5000000000E-01   1.202954E+01   0.
3000001    1    5    0    0    0  -1.7213686165E+00   2.0193803302E+01  -2.8056063592E+02   2.8129348238E+02   1.0000000000E+00     0.000   1.
3000022   2   5   0   0   0   -3.8165347848E+00   9.9770397499E+00   -8.0548948602E+01   8.1254556062E+01   2.5000000000E-01   1.601980E+00   1.
13    1    7    0    0    0  -1.3025915584E+00  -1.7045400279E+00  -1.5856280372E+00   2.6697270923E+00   1.0500000000E-01     0.000  -1.
-13    1    7    0    0    0  -1.2083266547E+00  -1.7208915012E+00  -1.6855759764E+00   2.6969820607E+00   1.0500000000E-01     0.000   1.
13    1    9    0    0    0  -1.8876088412E+00   4.8649000352E+00  -3.9828022276E+01   4.0168553657E+01   1.0500000000E-01     0.000   1.
-13    1    9    0    0    0  -1.9289259435E+00   5.1121397147E+00  -4.0720926327E+01   4.1086002405E+01   1.0500000000E-01     0.000   1.
</event>
<event>
 13   1  9.2978750E-05  1.2500000E+02  7.5467720E-03  1.2380620E-01
   21   -1    0    0  502  501   0.0000000000E+00   0.0000000000E+00   1.0596812674E+02   1.0596812674E+02   0.0000000000E+00     0.000   1.
   21   -1    0    0  501  502   0.0000000000E+00   0.0000000000E+00  -3.6862499320E+01   3.6862499320E+01   0.0000000000E+00     0.000   1.
   25    2    1    2    0    0   0.0000000000E+00   0.0000000000E+00   6.9105627425E+01   1.4283062606E+02   1.2500000000E+02  3.131E-08  -1.
3000002    2    3    0    0    0   1.8576472946E+01  -4.2622727245E+01  -1.1783769937E+01   4.8996320870E+01   1.0000000000E+01  1.629E-09   1.
3000002    2    3    0    0    0  -1.8576472946E+01   4.2622727245E+01   8.0889397362E+01   9.3834305190E+01   1.0000000000E+01  2.392E-09   1.
3000001    1    4    0    0    0   1.9039279208E+01  -3.6791003038E+01  -8.5612326273E+00   4.2312725761E+01   1.0000000000E+00     0.000   1.
3000022   2   4   0   0   0   -4.6280626231E-01   -5.8317242076E+00   -3.2225373093E+00   6.6835951089E+00   2.5000000000E-01   5.044810E-01   0.
3000001    1    5    0    0    0  -1.0268548033E+01   1.2538567278E+01   3.0758704744E+01   3.4781556400E+01   1.0000000000E+00     0.000  -1.
3000022   2   5   0   0   0   -8.3079249128E+00   3.0084159967E+01   5.0130692618E+01   5.9052748790E+01   2.5000000000E-01   3.745862E+00   0.
13    1    7    0    0    0  -1.0668905990E-01  -2.0573231645E+00  -1.1435246740E+00   2.3585238686E+00   1.0500000000E-01     0.000   1.
-13    1    7    0    0    0  -3.5611720240E-01  -3.7744010431E+00  -2.0790126353E+00   4.3250712403E+00   1.0500000000E-01     0.000  -1.
13    1    9    0    0    0  -6.2011135890E+00   2.2509758088E+01   3.7457818745E+01   4.4138897007E+01   1.0500000000E-01     0.000   1.
-13    1    9    0    0    0  -2.1068113238E+00   7.5744018793E+00   1.2672873873E+01   1.4913851783E+01   1.0500000000E-01     0.000  -1.
</event>
<event>
 13   1  9.2978750E-05  1.2500000E+02  7.5467720E-03  1.2380620E-01
   21   -1    0    0  502  501   0.0000000000E+00   0.0000000000E+00   2.1732782214E+02   2.1732782214E+02   0.0000000000E+00     0.000   1.
   21   -1    0    0  501  502   0.0000000000E+00   0.0000000000E+00  -1.7973998734E+01   1.7973998734E+01   0.0000000000E+00     0.000   1.
   25    2    1    2    0    0   0.0000000000E+00   0.0000000000E+00   1.9935382341E+02   2.3530182087E+02   1.2500000000E+02  4.229E-08  -1.
3000002    2    3    0    0    0  -3.8596015582E+01   4.0172309757E+01   4.9773994693E+01   7.5371861047E+01   1.0000000000E+01  2.764E-10   1.
3000002    2    3    0    0    0   3.8596015582E+01  -4.0172309757E+01   1.4957982872E+02   1.5992995982E+02   1.0000000000E+01  2.485E-09   1.
3000001    1    4    0    0    0  -7.2507560409E+00   1.3032153030E+01   1.5987583424E+01   2.1886372461E+01   1.0000000000E+00     0.000  -1.
3000022   2   4   0   0   0   -3.1345259541E+01   2.7140156727E+01   3.3786411268E+01   5.3485488586E+01   2.5000000000E-01   2.760987E+00   0.
3000001    1    5    0    0    0   4.0140945401E+00  -6.1913886274E+00   2.9647748148E+01   3.0568533141E+01   1.0000000000E+00     0.000  -1.
3000022   2   5   0   0   0   3.4581921042E+01   -3.3980921129E+01   1.1993208057E+02   1.2936142668E+02   2.5000000000E-01   3.465668E+00   0.
13    1    7    0    0    0  -1.3814232627E+01   1.1974997832E+01   1.4813328797E+01   2.3530391650E+01   1.0500000000E-01     0.000  -1.
-13    1    7    0    0    0  -1.7531026913E+01   1.5165158895E+01   1.8973082471E+01   2.9955096935E+01   1.0500000000E-01     0.000   1.
13    1    9    0    0    0   1.3637868808E+01  -1.3362547580E+01   4.7081113939E+01   5.0805427448E+01   1.0500000000E-01     0.000   1.
-13    1    9    0    0    0   2.0944052233E+01  -2.0618373549E+01   7.2850966630E+01   7.8555999234E+01   1.0500000000E-01     0.000  -1.
</event>
<event>
 13   1  9.2978750E-05  1.2500000E+02  7.5467720E-03  1.2380620E-01
   21   -1    0    0  502  501   0.0000000000E+00   0.0000000000E+00   1.6973132002E+02   1.6973132002E+02   0.0000000000E+00     0.000  -1.
   21   -1    0    0  501  502   0.0000000000E+00   0.0000000000E+00  -2.3014314621E+01   2.3014314621E+01   0.0000000000E+00     0.000  -1.
   25    2    1    2    0    0   0.0000000000E+00   0.0000000000E+00   1.4671700540E+02   1.9274563464E+02   1.2500000000E+02  6.507E-08  -1.
3000002    2    3    0    0    0  -5.0696026626E+01  -7.3158956763E+00   2.0331030911E+01   5.6008573121E+01   1.0000000000E+01  2.396E-10  -1.
3000002    2    3    0    0    0   5.0696026626E+01   7.3158956763E+00   1.2638597449E+02   1.3673706152E+02   1.0000000000E+01  2.188E-09  -1.
3000001    1    4    0    0    0  -3.3902855940E+01  -1.9788387074E+00   9.3261736363E+00   3.5232044479E+01   1.0000000000E+00     0.000  -1.
3000022   2   4   0   0   0   -1.6793170686E+01   -5.3370569688E+00   1.1004857274E+01   2.0776528642E+01   2.5000000000E-01   7.823324E+00   0.
3000001    1    5    0    0    0   1.0570391037E+01   5.5587223270E+00   3.1310383859E+01   3.3525702050E+01   1.0000000000E+00     0.000   1.
3000022   2   5   0   0   0   4.0125635589E+01   1.7571733493E+00   9.5075590631E+01   1.0321135947E+02   2.5000000000E-01   2.187088E+00   0.
13    1    7    0    0    0  -6.8358959569E+00  -2.1218949102E+00   4.5192358079E+00   8.4656026856E+00   1.0500000000E-01     0.000   1.
-13    1    7    0    0    0  -9.9572747290E+00  -3.2151620586E+00   6.4856214663E+00   1.2310925956E+01   1.0500000000E-01     0.000  -1.
13    1    9    0    0    0   1.3751316794E+01   6.5749268247E-01   3.2593713177E+01   3.5382088320E+01   1.0500000000E-01     0.000  -1.
-13    1    9    0    0    0   2.6374318795E+01   1.0996806669E+00   6.2481877454E+01   6.7829271149E+01   1.0500000000E-01     0.000   1.
</event>
<event>
 13   1  9.2978750E-05  1.2500000E+02  7.5467720E-03  1.2380620E-01
   21   -1    0    0  502  501   0.0000000000E+00   0.0000000000E+00   1.8097114582E+02   1.8097114582E+02   0.0000000000E+00     0.000  -1.
   21   -1    0    0  501  502   0.0000000000E+00   0.0000000000E+00  -2.1584932682E+01   2.1584932682E+01   0.0000000000E+00     0.000  -1.
   25    2    1    2    0    0   0.0000000000E+00   0.0000000000E+00   1.5938621314E+02   2.0255607851E+02   1.2500000000E+02  1.124E-07  -1.
3000002    2    3    0    0    0  -2.8685899278E+01   1.7469539324E+01   1.6355323124E+02   1.6726543299E+02   1.0000000000E+01  2.602E-09   1.
3000002    2    3    0    0    0   2.8685899278E+01  -1.7469539324E+01  -4.1670181046E+00   3.5290645524E+01   1.0000000000E+01  3.967E-10   1.
3000001    1    4    0    0    0  -1.5255854889E+01   1.4722992847E+01   1.0567624090E+02   1.0778671309E+02   1.0000000000E+00     0.000  -1.
3000022   2   4   0   0   0   -1.3430044389E+01   2.7465464771E+00   5.7876990340E+01   5.9478719898E+01   2.5000000000E-01   6.510326E+00   0.
3000001    1    5    0    0    0   2.2089032714E+01  -1.7820865442E+01  -3.9838658437E+00   2.8677165104E+01   1.0000000000E+00     0.000   1.
3000022   2   5   0   0   0   6.5968665645E+00   3.5132611831E-01   -1.8315226093E-01   6.6134804198E+00   2.5000000000E-01   4.426635E+00   0.
13    1    7    0    0    0  -7.0001913880E+00   1.3872853142E+00   3.0354529671E+01   3.1182298449E+01   1.0500000000E-01     0.000  -1.
-13    1    7    0    0    0  -6.4298530010E+00   1.3592611628E+00   2.7522460669E+01   2.8296421449E+01   1.0500000000E-01     0.000   1.
13    1    9    0    0    0   3.5680492712E+00   1.2844920518E-01  -7.2158315386E-02   3.5726330097E+00   1.0500000000E-01     0.000  -1.
-13    1    9    0    0    0   3.0288172934E+00   2.2287691313E-01  -1.1099394554E-01   3.0408474100E+00   1.0500000000E-01     0.000   1.
</event>
<event>
 13   1  9.2978750E-05  1.2500000E+02  7.5467720E-03  1.2380620E-01
   21   -1    0    0  502  501   0.0000000000E+00   0.0000000000E+00   3.8077235911E+01   3.8077235911E+01   0.0000000000E+00     0.000   1.
   21   -1    0    0  501  502   0.0000000000E+00   0.0000000000E+00  -1.0258754099E+02   1.0258754099E+02   0.0000000000E+00     0.000   1.
   25    2    1    2    0    0   0.0000000000E+00   0.0000000000E+00  -6.4510305084E+01   1.4066477691E+02   1.2500000000E+02  4.045E-09  -1.
3000002    2    3    0    0    0  -4.9912614185E+01  -1.1137182377E+01   6.5796445146E+00   5.2522353413E+01   1.0000000000E+01  8.211E-10  -1.
3000002    2    3    0    0    0   4.9912614185E+01   1.1137182377E+01  -7.1089949599E+01   8.8142423497E+01   1.0000000000E+01  3.880E-10  -1.
3000001    1    4    0    0    0  -3.7617857811E+00  -3.6817647696E+00   7.7294221064E-01   5.4133043276E+00   1.0000000000E+00     0.000   1.
3000022   2   4   0   0   0   -4.6150828404E+01   -7.4554176070E+00   5.8067023040E+00   4.7109049085E+01   2.5000000000E-01   5.420555E+00   0.
3000001    1    5    0    0    0   9.2590579959E+00  -1.5418976041E-01  -1.8554478244E+01   2.0761083603E+01   1.0000000000E+00     0.000   1.
3000022   2   5   0   0   0   4.0653556189E+01   1.1291372137E+01   -5.2535471355E+01   6.7381339895E+01   2.5000000000E-01   4.085333E-01   0.
13    1    7    0    0    0  -3.4671584873E+01  -5.5753597471E+00   4.3658429483E+00   3.5387498408E+01   1.0500000000E-01     0.000  -1.
-13    1    7    0    0    0  -1.1479243531E+01  -1.8800578599E+00   1.4408593557E+00   1.1721550677E+01   1.0500000000E-01     0.000   1.
13    1    9    0    0    0   1.6007625189E+01   4.3849845622E+00  -2.0699044010E+01   2.6531747054E+01   1.0500000000E-01     0.000  -1.
-13    1    9    0    0    0   2.4645931000E+01   6.9063875749E+00  -3.1836427345E+01   4.0849592841E+01   1.0500000000E-01     0.000   1.
</event>
<event>
 13   1  9.2978750E-05  1.2500000E+02  7.5467720E-03  1.2380620E-01
   21   -1    0    0  502  501   0.0000000000E+00   0.0000000000E+00   7.9595395907E+01   7.9595395907E+01   0.0000000000E+00     0.000  -1.
   21   -1    0    0  501  502   0.0000000000E+00   0.0000000000E+00  -4.9076331055E+01   4.9076331055E+01   0.0000000000E+00     0.000  -1.
   25    2    1    2    0    0   0.0000000000E+00   0.0000000000E+00   3.0519064852E+01   1.2867172696E+02   1.2500000000E+02  9.566E-08  -1.
3000002    2    3    0    0    0  -2.5461853895E+00  -6.0651696584E+01   2.6589129530E+01   6.7023079366E+01   1.0000000000E+01  4.953E-10  -1.
3000002    2    3    0    0    0   2.5461853895E+00   6.0651696584E+01   3.9299353222E+00   6.1648647594E+01   1.0000000000E+01  3.942E-10  -1.
3000001    1    4    0    0    0  -5.2914091539E+00  -3.4739589860E+01   1.1924887828E+01   3.7121975489E+01   1.0000000000E+00     0.000   1.
3000022   2   4   0   0   0   2.7452237645E+00   -2.5912106724E+01   1.4664241702E+01   2.9901103877E+01   2.5000000000E-01   1.893481E+00   0.
3000001    1    5    0    0    0   1.9044255376E+00   1.1239885816E+01  -2.7850875298E+00   1.1777885308E+01   1.0000000000E+00     0.000   1.
3000022   2   5   0   0   0   6.4175985187E-01   4.9411810768E+01   6.7150228519E+00   4.9870762286E+01   2.5000000000E-01   6.212353E-01   0.
13    1    7    0    0    0   6.9820529820E-01  -6.9110496279E+00   3.9010468769E+00   7.9673891165E+00   1.0500000000E-01     0.000   1.
-13    1    7    0    0    0   2.0470184663E+00  -1.9001057096E+01   1.0763194825E+01   2.1933714761E+01   1.0500000000E-01     0.000  -1.
13    1    9    0    0    0   3.3455333152E-01   2.2102249577E+01   3.0507991020E+00   2.2314563909E+01   1.0500000000E-01     0.000   1.
-13    1    9    0    0    0   3.0720652035E-01   2.7309561191E+01   3.6642237499E+00   2.7556198377E+01   1.0500000000E-01     0.000  -1.
</event>
<event>
 13   1  9.2978750E-05  1.2500000E+02  7.5467720E-03  1.2380620E-01
   21   -1    0    0  502  501   0.0000000000E+00   0.0000000000E+00   1.6405292296E+01   1.6405292296E+01   0.0000000000E+00     0.000   1.
   21   -1    0    0  501  502   0.0000000000E+00   0.0000000000E+00  -2.3810913757E+02   2.3810913757E+02   0.0000000000E+00     0.000   1.
   25    2    1    2    0    0   0.0000000000E+00   0.0000000000E+00  -2.2170384527E+02   2.5451442986E+02   1.2500000000E+02  1.029E-07  -1.
3000002    2    3    0    0    0   2.4103368436E+01   2.0614806471E+01  -2.1859893822E+02   2.2111408460E+02   1.0000000000E+01  8.385E-11  -1.
3000002    2    3    0    0    0  -2.4103368436E+01  -2.0614806471E+01  -3.1049070471E+00   3.3400345261E+01   1.0000000000E+01  3.091E-10  -1.
3000001    1    4    0    0    0   6.9407774674E+00   2.0383019709E+00  -6.9791027125E+01   7.0172049521E+01   1.0000000000E+00     0.000  -1.
3000022   2   4   0   0   0   1.7162590969E+01   1.8576504500E+01   -1.4880791110E+02   1.5094203508E+02   2.5000000000E-01   1.151731E+00   0.
3000001    1    5    0    0    0  -2.0748682605E+01  -1.8604694200E+01   7.5959890931E-01   2.7896585214E+01   1.0000000000E+00     0.000  -1.
3000022   2   5   0   0   0   -3.3546858314E+00   -2.0101122708E+00   -3.8645059564E+00   5.5037600470E+00   2.5000000000E-01   6.815830E-01   0.
13    1    7    0    0    0   5.7056416685E+00   6.1755511037E+00  -4.9790824743E+01   5.0495831827E+01   1.0500000000E-01     0.000  -1.
-13    1    7    0    0    0   1.1456949300E+01   1.2400953396E+01  -9.9017086354E+01   1.0044620325E+02   1.0500000000E-01     0.000   1.
13    1    9    0    0    0  -2.2782355251E+00  -1.3190173619E+00  -2.5502411777E+00   3.6667313746E+00   1.0500000000E-01     0.000   1.
-13    1    9    0    0    0  -1.0764503063E+00  -6.9109490882E-01  -1.3142647786E+00   1.8370286724E+00   1.0500000000E-01     0.000  -1.
</event>
<event>
 13   1  9.2978750E-05  1.2500000E+02  7.5467720E-03  1.2380620E-01
   21   -1    0    0  502  501   0.0000000000E+00   0.0000000000E+00   1.0417882530E+02   1.0417882530E+02   0.0000000000E+00     0.000  -1.
   21   -1    0    0  501  502   0.0000000000E+00   0.0000000000E+00  -3.7495623404E+01   3.7495623404E+01   0.0000000000E+00     0.000  -1.
   25    2    1    2    0    0   0.0000000000E+00   0.0000000000E+00   6.6683201891E+01   1.4167444870E+02   1.2500000000E+02  5.611E-08  -1.
3000002    2    3    0    0    0   1.3893267077E+01  -5.3325489732E-01   1.0146747062E+02   1.0290264732E+02   1.0000000000E+01  2.045E-09   1.
3000002    2    3    0    0    0  -1.3893267077E+01   5.3325489732E-01  -3.4784268733E+01   3.8771801379E+01   1.0000000000E+01  1.852E-09   1.
3000001    1    4    0    0    0   1.0269156536E+01  -1.5057145574E+00   4.0547814892E+01   4.1867028134E+01   1.0000000000E+00     0.000  -1.
3000022   2   4   0   0   0   3.6241105414E+00   9.7245966012E-01   6.0919655732E+01   6.1035619187E+01   2.5000000000E-01   1.985877E-01   0.
3000001    1    5    0    0    0  -1.4160623284E+01   2.2704310723E+00  -2.5094909197E+01   2.8921144110E+01   1.0000000000E+00     0.000   1.
3000022   2   5   0   0   0   2.6735620654E-01   -1.7371761750E+00   -9.6893595360E+00   9.8506572685E+00   2.5000000000E-01   5.318288E+00   0.
13    1    7    0    0    0   2.6707744149E+00   6.9140155139E-01   4.5110080551E+01   4.5194484889E+01   1.0500000000E-01     0.000  -1.
-13    1    7    0    0    0   9.5333612648E-01   2.8105810873E-01   1.5809575181E+01   1.5841134298E+01   1.0500000000E-01     0.000   1.
13    1    9    0    0    0   6.0756591510E-02  -7.1032874523E-01  -3.7081263576E+00   3.7774971044E+00   1.0500000000E-01     0.000  -1.
-13    1    9    0    0    0   2.0659961503E-01  -1.0268474297E+00  -5.9812331784E+00   6.0731601641E+00   1.0500000000E-01     0.000   1.
</event>
<event>
 13   1  9.2978750E-05  1.2500000E+02  7.5467720E-03  1.2380620E-01
   21   -1    0    0  502  501   0.0000000000E+00   0.0000000000E+00   1.1822343271E+01   1.1822343271E+01   0.0000000000E+00     0.000  -1.
   21   -1    0    0  501  502   0.0000000000E+00   0.0000000000E+00  -3.3041250034E+02   3.3041250034E+02   0.0000000000E+00     0.000  -1.
   25    2    1    2    0    0   0.0000000000E+00   0.0000000000E+00  -3.1859015707E+02   3.4223484362E+02   1.2500000000E+02  3.155E-08  -1.
3000002    2    3    0    0    0  -4.8763628754E+01  -1.8314613493E+01  -6.8782055778E+01   8.6857859481E+01   1.0000000000E+01  1.403E-11  -1.
3000002    2    3    0    0    0   4.8763628754E+01   1.8314613493E+01  -2.4980810129E+02   2.5537698414E+02   1.0000000000E+01  3.827E-10  -1.
3000001    1    4    0    0    0  -3.8148180129E+01  -9.7219941232E+00  -5.1294605550E+01   6.4667900657E+01   1.0000000000E+00     0.000  -1.
3000022   2   4   0   0   0   -1.0615448625E+01   -8.5926193696E+00   -1.7487450227E+01   2.2189958823E+01   2.5000000000E-01   9.936108E+00   0.
3000001    1    5    0    0    0   3.8763208531E+01   1.8178019382E+01  -2.1081805642E+02   2.1512387045E+02   1.0000000000E+00     0.000   1.
3000022   2   5   0   0   0   1.0000420223E+01   1.3659411078E-01   -3.8990044870E+01   4.0253113688E+01   2.5000000000E-01   5.256494E+00   0.
13    1    7    0    0    0  -3.2415179860E+00  -2.6078773413E+00  -5.2544804439E+00   6.7029137557E+00   1.0500000000E-01     0.000   1.
-13    1    7    0    0    0  -7.3739306387E+00  -5.9847420284E+00  -1.2232969783E+01   1.5487045068E+01   1.0500000000E-01     0.000  -1.
13    1    9    0    0    0   5.2881812481E+00   2.9567025862E-02  -2.0404633008E+01   2.1079037177E+01   1.0500000000E-01     0.000   1.
-13    1    9    0    0    0   4.7122389748E+00   1.0702708492E-01  -1.8585411862E+01   1.9174076511E+01   1.0500000000E-01     0.000  -1.
</event>
<event>
 13   1  9.2978750E-05  1.2500000E+02  7.5467720E-03  1.2380620E-01
   21   -1    0    0  502  501   0.0000000000E+00   0.0000000000E+00   1.3765652464E+02   1.3765652464E+02   0.0000000000E+00     0.000  -1.
   21   -1    0    0  501  502   0.0000000000E+00   0.0000000000E+00  -2.8376787880E+01   2.8376787880E+01   0.0000000000E+00     0.000  -1.
   25    2    1    2    0    0   0.0000000000E+00   0.0000000000E+00   1.0927973676E+02   1.6603331252E+02   1.2500000000E+02  8.520E-08  -1.
3000002    2    3    0    0    0   1.9542128294E+01   5.8507895805E+01   5.6083560406E+01   8.3966864879E+01   1.0000000000E+01  2.295E-10  -1.
3000002    2    3    0    0    0  -1.9542128294E+01  -5.8507895805E+01   5.3196176354E+01   8.2066447641E+01   1.0000000000E+01  6.434E-10  -1.
3000001    1    4    0    0    0   8.3869645532E+00   3.3086688507E+01   2.5200740663E+01   4.2439927671E+01   1.0000000000E+00     0.000  -1.
3000022   2   4   0   0   0   1.1155163741E+01   2.5421207298E+01   3.0882819743E+01   4.1526937207E+01   2.5000000000E-01   7.164086E-01   0.
3000001    1    5    0    0    0  -1.0847326375E+01  -3.2931550296E+01   3.6273028336E+01   5.0188485523E+01   1.0000000000E+00     0.000  -1.
3000022   2   5   0   0   0   -8.6948019185E+00   -2.5576345509E+01   1.6923148018E+01   3.1877962119E+01   2.5000000000E-01   6.011026E-01   0.
13    1    7    0    0    0   6.6694417138E+00   1.5352630830E+01   1.8636839058E+01   2.5050499421E+01   1.0500000000E-01     0.000  -1.
-13    1    7    0    0    0   4.4857220270E+00   1.0068576468E+01   1.2245980685E+01   1.6476437787E+01   1.0500000000E-01     0.000   1.
13    1    9    0    0    0  -6.0588877703E+00  -1.7679181742E+01   1.1692029703E+01   2.2044912603E+01   1.0500000000E-01     0.000  -1.
-13    1    9    0    0    0  -2.6359141482E+00  -7.8971637671E+00   5.2311183145E+00   9.8330495158E+00   1.0500000000E-01     0.000   1.
</event>
<event>
 13   1  9.2978750E-05  1.2500000E+02  7.5467720E-03  1.2380620E-01
   21   -1    0    0  502  501   0.0000000000E+00   0.0000000000E+00   6.5391894990E+01   6.5391894990E+01   0.0000000000E+00     0.000   1.
   21   -1    0    0  501  502   0.0000000000E+00   0.0000000000E+00  -5.9735996343E+01   5.9735996343E+01   0.0000000000E+00     0.000   1.
   25    2    1    2    0    0   0.0000000000E+00   0.0000000000E+00   5.6558986468E+00   1.2512789133E+02   1.2500000000E+02  6.530E-10  -1.
3000002    2    3    0    0    0   5.1731224937E+01   5.2261542007E+00  -3.0414726354E+01   6.1061345386E+01   1.0000000000E+01  9.232E-10   1.
3000002    2    3    0    0    0  -5.1731224937E+01  -5.2261542007E+00   3.6070625001E+01   6.4066545944E+01   1.0000000000E+01  1.290E-10   1.
3000001    1    4    0    0    0   3.1405218625E+01  -1.6993221827E+00  -1.8508993869E+01   3.6506962443E+01   1.0000000000E+00     0.000   1.
3000022   2   4   0   0   0   2.0326006311E+01   6.9254763834E+00   -1.1905732485E+01   2.4554382943E+01   2.5000000000E-01   1.505585E+00   0.
3000001    1    5    0    0    0  -2.4346145011E+01  -7.4206460899E+00   1.7622776559E+01   3.0973585826E+01   1.0000000000E+00     0.000   1.
3000022   2   5   0   0   0   -2.7385079926E+01   2.1944918892E+00   1.8447848442E+01   3.3092960117E+01   2.5000000000E-01   3.810707E+00   0.
13    1    7    0    0    0   6.7705556802E+00   2.3399790919E+00  -4.0216367979E+00   8.2158696377E+00   1.0500000000E-01     0.000  -1.
-13    1    7    0    0    0   1.3555450631E+01   4.5854972915E+00  -7.8840956872E+00   1.6338513305E+01   1.0500000000E-01     0.000   1.
13    1    9    0    0    0  -1.5234155364E+01   1.2668940031E+00   1.0322434146E+01   1.8445817459E+01   1.0500000000E-01     0.000  -1.
-13    1    9    0    0    0  -1.2150924562E+01   9.2759788604E-01   8.1254142963E+00   1.4647142658E+01   1.0500000000E-01     0.000   1.
</event>
<event>
 13   1  9.2978750E-05  1.2500000E+02  7.5467720E-03  1.2380620E-01
   21   -1    0    0  502  501   0.0000000000E+00   0.0000000000E+00   2.4234899337E+02   2.4234899337E+02   0.0000000000E+00     0.000  -1.
   21   -1    0    0  501  502   0.0000000000E+00   0.0000000000E+00  -1.6118284403E+01   1.6118284403E+01   0.0000000000E+00     0.000  -1.
   25    2    1    2    0    0   0.0000000000E+00   0.0000000000E+00   2.2623070897E+02   2.5846727778E+02   1.2500000000E+02  5.158E-09  -1.
3000002    2    3    0    0    0  -5.5168624866E+01   9.3960050632E+00   5.9418302051E+01   8.2233792928E+01   1.0000000000E+01  1.271E-09  -1.
3000002    2    3    0    0    0   5.5168624866E+01  -9.3960050632E+00   1.6681240692E+02   1.7623348485E+02   1.0000000000E+01  2.559E-10  -1.
3000001    1    4    0    0    0  -2.5453273466E+01   4.3028786976E+00   2.0359279369E+01   3.2892007413E+01   1.0000000000E+00     0.000  -1.
3000022   2   4   0   0   0   -2.9715351401E+01   5.0931263656E+00   3.9059022681E+01   4.9341785515E+01   2.5000000000E-01   6.106811E+00   0.
3000001    1    5    0    0    0   4.6299395145E+01  -9.8840095813E+00   1.2975743819E+02   1.3812791319E+02   1.0000000000E+00     0.000  -1.
3000022   2   5   0   0   0   8.8692297217E+00   4.8800451819E-01   3.7054968727E+01   3.8105571661E+01   2.5000000000E-01   6.268403E+00   0.
13    1    7    0    0    0  -1.4423884715E+01   2.4642152092E+00   1.9067690252E+01   2.4035570378E+01   1.0500000000E-01     0.000  -1.
-13    1    7    0    0    0  -1.5291466686E+01   2.6289111564E+00   1.9991332429E+01   2.5306215137E+01   1.0500000000E-01     0.000   1.
13    1    9    0    0    0   4.5528439608E+00   1.8972647479E-01   1.9136224599E+01   1.9671565803E+01   1.0500000000E-01     0.000  -1.
-13    1    9    0    0    0   4.3163857609E+00   2.9827804339E-01   1.7918744128E+01   1.8434005858E+01   1.0500000000E-01     0.000   1.
</event>
<event>
 13   1  9.2978750E-05  1.2500000E+02  7.5467720E-03  1.2380620E-01
   21   -1    0    0  502  501   0.0000000000E+00   0.0000000000E+00   5.0455152654E+01   5.0455152654E+01   0.0000000000E+00     0.000   1.
   21   -1    0    0  501  502   0.0000000000E+00   0.0000000000E+00  -7.7420239450E+01   7.7420239450E+01   0.0000000000E+00     0.000   1.
   25    2    1    2    0    0   0.0000000000E+00   0.0000000000E+00  -2.6965086796E+01   1.2787539210E+02   1.2500000000E+02  6.299E-08  -1.
3000002    2    3    0    0    0   5.8553889277E+01  -1.8611972358E+01  -7.7604400144E+00   6.2731075981E+01   1.0000000000E+01  5.936E-11   1.
3000002    2    3    0    0    0  -5.8553889277E+01   1.8611972358E+01  -1.9204646782E+01   6.5144316119E+01   1.0000000000E+01  1.023E-09   1.
3000001    1    4    0    0    0   1.0297971100E+01  -1.4797751437E-03  -3.0991611090E+00   1.0800602324E+01   1.0000000000E+00     0.000  -1.
3000022   2   4   0   0   0   4.8255918177E+01   -1.8610492583E+01   -4.6612789054E+00   5.1930473658E+01   2.5000000000E-01   4.617417E+00   0.
3000001    1    5    0    0    0  -1.2012707366E+01   6.1469497640E+00  -7.8463776059E+00   1.5641475992E+01   1.0000000000E+00     0.000  -1.
3000022   2   5   0   0   0   -4.6541181911E+01   1.2465022594E+01   -1.1358269176E+01   4.9502840127E+01   2.5000000000E-01   9.654260E+00   0.
13    1    7    0    0    0   2.7901006078E+01  -1.0705627891E+01  -2.6529872397E+00   3.0002099510E+01   1.0500000000E-01     0.000   1.
-13    1    7    0    0    0   2.0354912099E+01  -7.9048646919E+00  -2.0082916657E+00   2.1928374148E+01   1.0500000000E-01     0.000  -1.
13    1    9    0    0    0  -2.1090407799E+01   5.6984504438E+00  -5.1977092285E+00   2.2456732728E+01   1.0500000000E-01     0.000   1.
-13    1    9    0    0    0  -2.5450774112E+01   6.7665721502E+00  -6.1605599472E+00   2.7046107399E+01   1.0500000000E-01     0.000  -1.
</event>
<event>
 13   1  9.2978750E-05  1.2500000E+02  7.5467720E-03  1.2380620E-01
   21   -1    0    0  502  501   0.0000000000E+00   0.0000000000E+00   2.6286555135E+02   2.6286555135E+02   0.0000000000E+00     0.000  -1.
   21   -1    0    0  501  502   0.0000000000E+00   0.0000000000E+00  -1.4860258333E+01   1.4860258333E+01   0.0000000000E+00     0.000  -1.
   25    2    1    2    0    0   0.0000000000E+00   0.0000000000E+00   2.4800529302E+02   2.7772580969E+02   1.2500000000E+02  6.820E-08  -1.
3000002    2    3    0    0    0   2.7240338695E+01  -3.4155806198E+01   2.2078762886E+02   2.2529055064E+02   1.0000000000E+01  4.332E-11  -1.
3000002    2    3    0    0    0  -2.7240338695E+01   3.4155806198E+01   2.7217664156E+01   5.2435259048E+01   1.0000000000E+01  1.198E-10  -1.
3000001    1    4    0    0    0   2.2993784106E+00  -9.0209856995E+00   5.0405761622E+01   5.1267983467E+01   1.0000000000E+00     0.000   1.
3000022   2   4   0   0   0   2.4940960285E+01   -2.5134820499E+01   1.7038186724E+02   1.7402256718E+02   2.5000000000E-01   8.846701E+00   0.
3000001    1    5    0    0    0  -2.6499388897E+01   2.9844891646E+01   2.1869198595E+01   4.5521390757E+01   1.0000000000E+00     0.000  -1.
3000022   2   5   0   0   0   -7.4094979809E-01   4.3109145522E+00   5.3484655609E+00   6.9138682904E+00   2.5000000000E-01   1.231532E+00   0.
13    1    7    0    0    0   1.4093184852E+01  -1.4110222955E+01   9.6010119843E+01   9.8059524721E+01   1.0500000000E-01     0.000   1.
-13    1    7    0    0    0   1.0847775433E+01  -1.1024597544E+01   7.4371747399E+01   7.5963042455E+01   1.0500000000E-01     0.000  -1.
13    1    9    0    0    0  -5.1909254904E-01   2.7361774836E+00   3.3495442226E+00   4.3573611046E+00   1.0500000000E-01     0.000  -1.
-13    1    9    0    0    0  -2.2185724905E-01   1.5747370686E+00   1.9989213384E+00   2.5565071858E+00   1.0500000000E-01     0.000   1.
</event>
<event>
 13   1  9.2978750E-05  1.2500000E+02  7.5467720E-03  1.2380620E-01
   21   -1    0    0  502  501   0.0000000000E+00   0.0000000000E+00   3.4843411615E+00   3.4843411615E+00   0.0000000000E+00     0.000  -1.
   21   -1    0    0  501  502   0.0000000000E+00   0.0000000000E+00  -1.1210871206E+03   1.1210871206E+03   0.0000000000E+00     0.000  -1.
   25    2    1    2    0    0   0.0000000000E+00   0.0000000000E+00  -1.1176027795E+03   1.1245714618E+03   1.2500000000E+02  2.086E-08  -1.
3000002    2    3    0    0    0  -6.0276776651E+01  -1.2578225716E+01  -5.2425124926E+02   5.2794968881E+02   1.0000000000E+01  9.015E-10   1.
3000002    2    3    0    0    0   6.0276776651E+01   1.2578225716E+01  -5.9335153024E+02   5.9662177299E+02   1.0000000000E+01  2.471E-10   1.
3000001    1    4    0    0    0  -2.8186725439E+01  -4.1757252970E+00  -2.8200509150E+02   2.8344276283E+02   1.0000000000E+00     0.000  -1.
3000022   2   4   0   0   0   -3.2090051213E+01   -8.4025004187E+00   -2.4224615776E+02   2.4450692597E+02   2.5000000000E-01   1.010776E+01   0.
3000001    1    5    0    0    0   3.8188852741E+01   4.5853417873E+00  -4.0080671933E+02   4.0264927679E+02   1.0000000000E+00     0.000   1.
3000022   2   5   0   0   0   2.2087923910E+01   7.9928839284E+00   -1.9254481091E+02   1.9397249620E+02   2.5000000000E-01   3.438969E+00   0.
13    1    7    0    0    0  -1.5698836109E+01  -4.0847362596E+00  -1.1799781917E+02   1.1910766088E+02   1.0500000000E-01     0.000  -1.
-13    1    7    0    0    0  -1.6391215104E+01  -4.3177641592E+00  -1.2424833859E+02   1.2539926510E+02   1.0500000000E-01     0.000   1.
13    1    9    0    0    0   1.4194737662E+01   5.0815425837E+00  -1.2336922382E+02   1.2428712348E+02   1.0500000000E-01     0.000  -1.
-13    1    9    0    0    0   7.8931862482E+00   2.9113413447E+00  -6.9175587088E+01   6.9685372723E+01   1.0500000000E-01     0.000   1.
</event>
<event>
 13   1  9.2978750E-05  1.2500000E+02  7.5467720E-03  1.2380620E-01
   21   -1    0    0  502  501   0.0000000000E+00   0.0000000000E+00   8.2073780237E+01   8.2073780237E+01   0.0000000000E+00     0.000   1.
   21   -1    0    0  501  502   0.0000000000E+00   0.0000000000E+00  -4.7594371658E+01   4.7594371658E+01   0.0000000000E+00     0.000   1.
   25    2    1    2    0    0   0.0000000000E+00   0.0000000000E+00   3.4479408579E+01   1.2966815190E+02   1.2500000000E+02  4.111E-08  -1.
3000002    2    3    0    0    0   2.2934627206E+01  -2.5891229526E+01  -3.5755308489E+01   5.0742437630E+01   1.0000000000E+01  2.099E-10  -1.
3000002    2    3    0    0    0  -2.2934627206E+01   2.5891229526E+01   7.0234717068E+01   7.8925714270E+01   1.0000000000E+01  1.075E-10  -1.
3000001    1    4    0    0    0   1.8032514720E+01  -2.2824040542E+01  -2.4330893447E+01   3.7935481936E+01   1.0000000000E+00     0.000  -1.
3000022   2   4   0   0   0   4.9021124862E+00   -3.0671889844E+00   -1.1424415042E+01   1.2806955694E+01   2.5000000000E-01   5.575519E+00   0.
3000001    1    5    0    0    0  -1.3964786765E+01   2.2208102344E+01   4.9352548869E+01   5.5900708036E+01   1.0000000000E+00     0.000   1.
3000022   2   5   0   0   0   -8.9698404408E+00   3.6831271821E+00   2.0882168200E+01   2.3025006234E+01   2.5000000000E-01   3.143041E+00   0.
13    1    7    0    0    0   3.0827098039E+00  -1.9945575172E+00  -7.2922063683E+00   8.1650877608E+00   1.0500000000E-01     0.000  -1.
-13    1    7    0    0    0   1.8194026823E+00  -1.0726314671E+00  -4.1322086736E+00   4.6418679330E+00   1.0500000000E-01     0.000   1.
13    1    9    0    0    0  -6.8274458404E+00   2.7829096209E+00   1.5868408880E+01   1.7497886388E+01   1.0500000000E-01     0.000   1.
-13    1    9    0    0    0  -2.1423946003E+00   9.0021756121E-01   5.0137593191E+00   5.5271198459E+00   1.0500000000E-01     0.000  -1.
</event>
<event>
 13   1  9.2978750E-05  1.2500000E+02  7.5467720E-03  1.2380620E-01
   21   -1    0    0  502  501   0.0000000000E+00   0.0000000000E+00   2.9568969304E+01   2.9568969304E+01   0.0000000000E+00     0.000   1.
   21   -1    0    0  501  502   0.0000000000E+00   0.0000000000E+00  -1.3210639708E+02   1.3210639708E+02   0.0000000000E+00     0.000   1.
   25    2    1    2    0    0   0.0000000000E+00   0.0000000000E+00  -1.0253742777E+02   1.6167536638E+02   1.2500000000E+02  1.783E-07  -1.
3000002    2    3    0    0    0  -5.0092973575E+01  -3.5187304016E+01  -6.1186477854E+01   8.7127707634E+01   1.0000000000E+01  3.896E-10   1.
3000002    2    3    0    0    0   5.0092973575E+01   3.5187304016E+01  -4.1350949916E+01   7.4547658746E+01   1.0000000000E+01  5.875E-10   1.
3000001    1    4    0    0    0  -2.2863509097E+01  -1.0147726905E+01  -2.4528875789E+01   3.5048283225E+01   1.0000000000E+00     0.000  -1.
3000022   2   4   0   0   0   -2.7229464478E+01   -2.5039577111E+01   -3.6657602065E+01   5.2079424409E+01   2.5000000000E-01   8.753418E+00   0.
3000001    1    5    0    0    0   3.9900608183E+01   3.2533396830E+01  -3.4271045882E+01   6.1854547355E+01   1.0000000000E+00     0.000   1.
3000022   2   5   0   0   0   1.0192365392E+01   2.6539071855E+00   -7.0799040339E+00   1.2693111390E+01   2.5000000000E-01   1.620485E+00   0.
13    1    7    0    0    0  -1.2176020206E+01  -1.1262686814E+01  -1.6372023576E+01   2.3305745285E+01   1.0500000000E-01     0.000   1.
-13    1    7    0    0    0  -1.5053444272E+01  -1.3776890297E+01  -2.0285578489E+01   2.8773679124E+01   1.0500000000E-01     0.000  -1.
13    1    9    0    0    0   6.5893734390E+00   1.7744501127E+00  -4.5896988097E+00   8.2246504901E+00   1.0500000000E-01     0.000   1.
-13    1    9    0    0    0   3.6029919529E+00   8.7945707279E-01  -2.4902052242E+00   4.4684608999E+00   1.0500000000E-01     0.000  -1.
</event>
<event>
 13   1  9.2978750E-05  1.2500000E+02  7.5467720E-03  1.2380620E-01
   21   -1    0    0  502  501   0.0000000000E+00   0.0000000000E+00   7.8095293909E+01   7.8095293909E+01   0.0000000000E+00     0.000  -1.
   21   -1    0    0  501  502   0.0000000000E+00   0.0000000000E+00  -5.0019019130E+01   5.0019019130E+01   0.0000000000E+00     0.000  -1.
   25    2    1    2    0    0   0.0000000000E+00   0.0000000000E+00   2.8076274779E+01   1.2811431304E+02   1.2500000000E+02  2.419E-08  -1.
3000002    2    3    0    0    0  -6.9324275841E+00   1.6969880477E+00   7.6845511014E+01   7.7821403763E+01   1.0000000000E+01  3.189E-10   1.
3000002    2    3    0    0    0   6.9324275841E+00  -1.6969880477E+00  -4.8769236235E+01   5.0292909277E+01   1.0000000000E+01  6.518E-10   1.
3000001    1    4    0    0    0  -4.0864482421E+00   1.3509528302E-01   7.1044525758E+01   7.1169108117E+01   1.0000000000E+00     0.000   1.
3000022   2   4   0   0   0   -2.8459793420E+00   1.5618927647E+00   5.8009852561E+00   6.6522956463E+00   2.5000000000E-01   3.289401E+00   0.
3000001    1    5    0    0    0   3.5704485023E+00  -1.2070603467E+00  -4.7655964131E+00   6.1575974504E+00   1.0000000000E+00     0.000  -1.
3000022   2   5   0   0   0   3.3619790819E+00   -4.8992770096E-01   -4.4003639822E+01   4.4135311827E+01   2.5000000000E-01   5.902697E-01   0.
13    1    7    0    0    0  -1.3573532329E+00   7.5582108406E-01   2.6400547314E+00   3.0650591013E+00   1.0500000000E-01     0.000  -1.
-13    1    7    0    0    0  -1.4886261091E+00   8.0607168063E-01   3.1609305248E+00   3.5872365449E+00   1.0500000000E-01     0.000   1.
13    1    9    0    0    0   1.5324981489E+00  -2.9063921244E-01  -2.0291518295E+01   2.0351652548E+01   1.0500000000E-01     0.000  -1.
-13    1    9    0    0    0   1.8294809330E+00  -1.9928848852E-01  -2.3712121527E+01   2.3783659279E+01   1.0500000000E-01     0.000   1.
</event>
<event>
 13   1  9.2978750E-05  1.2500000E+02  7.5467720E-03  1.2380620E-01
   21   -1    0    0  502  501   0.0000000000E+00   0.0000000000E+00   2.4632902027E+01   2.4632902027E+01   0.0000000000E+00     0.000  -1.
   21   -1    0    0  501  502   0.0000000000E+00   0.0000000000E+00  -1.5857855464E+02   1.5857855464E+02   0.0000000000E+00     0.000  -1.
   25    2    1    2    0    0   0.0000000000E+00   0.0000000000E+00  -1.3394565261E+02   1.8321145667E+02   1.2500000000E+02  2.652E-08  -1.
3000002    2    3    0    0    0  -1.8958565306E+01   4.3895866769E+01  -9.8301029340E+00   4.9828759182E+01   1.0000000000E+01  1.061E-09   1.
3000002    2    3    0    0    0   1.8958565306E+01  -4.3895866769E+01  -1.2411554968E+02   1.3338269749E+02   1.0000000000E+01  4.268E-10   1.
3000001    1    4    0    0    0  -1.5274484395E+01   3.0243297901E+01  -1.1001914768E+01   3.5637186618E+01   1.0000000000E+00     0.000  -1.
3000022   2   4   0   0   0   -3.6840809111E+00   1.3652568868E+01   1.1718118342E+00   1.4191572564E+01   2.5000000000E-01   1.053699E+01   0.
3000001    1    5    0    0    0   1.1018277558E+00  -1.2188786726E+00  -1.1090699536E+01   1.1256256297E+01   1.0000000000E+00     0.000   1.
3000022   2   5   0   0   0   1.7856737551E+01   -4.2676988096E+01   -1.1302485014E+02   1.2212644119E+02   2.5000000000E-01   1.258759E+00   0.
13    1    7    0    0    0  -1.2324598930E+00   4.7830100440E+00   4.1399991129E-01   4.9576772178E+00   1.0500000000E-01     0.000  -1.
-13    1    7    0    0    0  -2.4516210181E+00   8.8695588239E+00   7.5781192290E-01   9.2338953458E+00   1.0500000000E-01     0.000   1.
13    1    9    0    0    0   8.3066507787E+00  -1.9930475327E+01  -5.2911837584E+01   5.7148034747E+01   1.0500000000E-01     0.000  -1.
-13    1    9    0    0    0   9.5500867720E+00  -2.2746512770E+01  -6.0113012557E+01   6.4978406445E+01   1.0500000000E-01     0.000   1.
</event>
<event>
 13   1  9.2978750E-05  1.2500000E+02  7.5467720E-03  1.2380620E-01
   21   -1    0    0  502  501   0.0000000000E+00   0.0000000000E+00   4.9817249059E+00   4.9817249059E+00   0.0000000000E+00     0.000  -1.
   21   -1    0    0  501  502   0.0000000000E+00   0.0000000000E+00  -7.8411595859E+02   7.8411595859E+02   0.0000000000E+00     0.000  -1.
   25    2    1    2    0    0   0.0000000000E+00   0.0000000000E+00  -7.7913423369E+02   7.8909768350E+02   1.2500000000E+02  7.449E-08  -1.
3000002    2    3    0    0    0  -5.2016486994E+01   3.2046965915E+01  -3.3543632955E+02   3.4110153053E+02   1.0000000000E+01  9.864E-10  -1.
3000002    2    3    0    0    0   5.2016486994E+01  -3.2046965915E+01  -4.4369790414E+02   4.4799615297E+02   1.0000000000E+01  1.258E-09  -1.
3000001    1    4    0    0    0  -7.2694911754E+00   9.3107961749E-01  -4.2051905264E+01   4.2697484089E+01   1.0000000000E+00     0.000   1.
3000022   2   4   0   0   0   -4.4746995818E+01   3.1115886297E+01   -2.9338442429E+02   2.9840404644E+02   2.5000000000E-01   4.387133E+00   0.
3000001    1    5    0    0    0   3.2110205026E+01  -1.5541411278E+01  -2.3300632281E+02   2.3572345493E+02   1.0000000000E+00     0.000  -1.
3000022   2   5   0   0   0   1.9906281967E+01   -1.6505554636E+01   -2.1069158132E+02   2.1227269805E+02   2.5000000000E-01   2.999849E+00   0.
13    1    7    0    0    0  -1.3828327054E+01   9.6228466604E+00  -9.0950298164E+01   9.2497511146E+01   1.0500000000E-01     0.000   1.
-13    1    7    0    0    0  -3.0918668765E+01   2.1493039637E+01  -2.0243412613E+02   2.0590653529E+02   1.0500000000E-01     0.000  -1.
13    1    9    0    0    0   7.9820991233E+00  -6.5960342691E+00  -8.3871153764E+01   8.4508005734E+01   1.0500000000E-01     0.000  -1.
-13    1    9    0    0    0   1.1924182844E+01  -9.9095203673E+00  -1.2682042756E+02   1.2776469231E+02   1.0500000000E-01     0.000   1.
</event>
<event>
 13   1  9.2978750E-05  1.2500000E+02  7.5467720E-03  1.2380620E-01
   21   -1    0    0  502  501   0.0000000000E+00   0.0000000000E+00   1.6480281275E+02   1.6480281275E+02   0.0000000000E+00     0.000  -1.
   21   -1    0    0  501  502   0.0000000000E+00   0.0000000000E+00  -2.3702568754E+01   2.3702568754E+01   0.0000000000E+00     0.000  -1.
   25    2    1    2    0    0   0.0000000000E+00   0.0000000000E+00   1.4110024400E+02   1.8850538150E+02   1.2500000000E+02  5.206E-09  -1.
3000002    2    3    0    0    0  -3.3672222340E+00  -5.7538240097E+01   1.0373607301E+02   1.1909307328E+02   1.0000000000E+01  5.631E-10  -1.
3000002    2    3    0    0    0   3.3672222340E+00   5.7538240097E+01   3.7364170988E+01   6.9412308221E+01   1.0000000000E+01  2.538E-10  -1.
3000001    1    4    0    0    0  -6.0863438050E+00  -3.5781620349E+01   7.0010640899E+01   7.8866074930E+01   1.0000000000E+00     0.000  -1.
3000022   2   4   0   0   0   2.7191215710E+00   -2.1756619748E+01   3.3725432113E+01   4.0226998349E+01   2.5000000000E-01   7.938481E+00   0.
3000001    1    5    0    0    0   4.1951830914E+00   4.8049296802E+01   3.4981608092E+01   5.9590665285E+01   1.0000000000E+00     0.000  -1.
3000022   2   5   0   0   0   -8.2796085747E-01   9.4889432942E+00   2.3825628964E+00   9.8216429368E+00   2.5000000000E-01   6.750778E+00   0.
13    1    7    0    0    0   1.0123690511E+00  -8.0489693991E+00   1.2587268693E+01   1.4975351670E+01   1.0500000000E-01     0.000   1.
-13    1    7    0    0    0   1.7067525199E+00  -1.3707650348E+01   2.1138163419E+01   2.5251646679E+01   1.0500000000E-01     0.000  -1.
13    1    9    0    0    0  -4.0383771228E-01   4.3625210968E+00   1.0310294221E+00   4.5020797291E+00   1.0500000000E-01     0.000  -1.
-13    1    9    0    0    0  -4.2412314518E-01   5.1264221974E+00   1.3515334742E+00   5.3195632077E+00   1.0500000000E-01     0.000   1.
</event>
<event>
 13   1  9.2978750E-05  1.2500000E+02  7.5467720E-03  1.2380620E-01
   21   -1    0    0  502  501   0.0000000000E+00   0.0000000000E+00   1.9260862978E+02   1.9260862978E+02   0.0000000000E+00     0.000   1.
   21   -1    0    0  501  502   0.0000000000E+00   0.0000000000E+00  -2.0280763143E+01   2.0280763143E+01   0.0000000000E+00     0.000   1.
   25    2    1    2    0    0   0.0000000000E+00   0.0000000000E+00   1.7232786664E+02   2.1288939293E+02   1.2500000000E+02  7.807E-08  -1.
3000002    2    3    0    0    0   6.1067772881E+01  -8.6839862208E+00   8.8294869373E+01   1.0816962817E+02   1.0000000000E+01  8.090E-10  -1.
3000002    2    3    0    0    0  -6.1067772881E+01   8.6839862208E+00   8.4032997267E+01   1.0471976476E+02   1.0000000000E+01  3.836E-11  -1.
3000001    1    4    0    0    0   4.5271146531E+01  -2.4874066513E+00   6.7661233800E+01   8.1453707463E+01   1.0000000000E+00     0.000  -1.
3000022   2   4   0   0   0   1.5796626349E+01   -6.1965795695E+00   2.0633635574E+01   2.6715920710E+01   2.5000000000E-01   5.109560E+00   0.
3000001    1    5    0    0    0  -2.3565051533E+01   5.8354105902E+00   2.6201975742E+01   3.5733838351E+01   1.0000000000E+00     0.000  -1.
3000022   2   5   0   0   0   -3.7502721348E+01   2.8485756306E+00   5.7831021525E+01   6.8985926407E+01   2.5000000000E-01   5.093124E+00   0.
13    1    7    0    0    0   7.7064356540E+00  -3.0277162565E+00   1.0174769709E+01   1.3118429016E+01   1.0500000000E-01     0.000   1.
-13    1    7    0    0    0   8.0901906952E+00  -3.1688633130E+00   1.0458865864E+01   1.3597491693E+01   1.0500000000E-01     0.000  -1.
13    1    9    0    0    0  -9.3371926082E+00   6.8712185651E-01   1.4420726157E+01   1.7193710192E+01   1.0500000000E-01     0.000  -1.
-13    1    9    0    0    0  -2.8165528740E+01   2.1614537741E+00   4.3410295368E+01   5.1792216215E+01   1.0500000000E-01     0.000   1.
</event>
<event>
 13   1  9.2978750E-05  1.2500000E+02  7.5467720E-03  1.2380620E-01
   21   -1    0    0  502  501   0.0000000000E+00   0.0000000000E+00   4.4803627244E+02   4.4803627244E+02   0.0000000000E+00     0.000  -1.
   21   -1    0    0  501  502   0.0000000000E+00   0.0000000000E+00  -8.7186021317E+00   8.7186021317E+00   0.0000000000E+00     0.000  -1.
   25    2    1    2    0    0   0.0000000000E+00   0.0000000000E+00   4.3931767031E+02   4.5675487458E+02   1.2500000000E+02  5.529E-08  -1.
3000002    2    3    0    0    0  -6.0014639696E+01  -3.3961086148E-01   2.7189724146E+02   2.7862157531E+02   1.0000000000E+01  1.410E-09   1.
3000002    2    3    0    0    0   6.0014639696E+01   3.3961086148E-01   1.6742042885E+02   1.7813329927E+02   1.0000000000E+01  4.955E-10   1.
3000001    1    4    0    0    0  -5.5138172634E+01   7.1932028534E-01   2.5862071640E+02   2.6443602337E+02   1.0000000000E+00     0.000   1.
3000022   2   4   0   0   0   -4.8764670620E+00   -1.0589311468E+00   1.3276525058E+01   1.4185551938E+01   2.5000000000E-01   1.432505E+01   0.
3000001    1    5    0    0    0   1.0616779684E+01  -3.1365912896E+00   2.5358844819E+01   2.7687997875E+01   1.0000000000E+00     0.000  -1.
3000022   2   5   0   0   0   4.9397860012E+01   3.4762021511E+00   1.4206158403E+02   1.5044530140E+02   2.5000000000E-01   4.429803E+00   0.
13    1    7    0    0    0  -1.6686200898E+00  -3.8701239629E-01   4.7036512419E+00   5.0069383464E+00   1.0500000000E-01     0.000  -1.
-13    1    7    0    0    0  -3.2078469722E+00  -6.7191875052E-01   8.5728738159E+00   9.1786135918E+00   1.0500000000E-01     0.000   1.
13    1    9    0    0    0   2.6343986803E+01   1.9014401858E+00   7.5626204080E+01   8.0105897935E+01   1.0500000000E-01     0.000  -1.
-13    1    9    0    0    0   2.3053873209E+01   1.5747619652E+00   6.6435379950E+01   7.0339403462E+01   1.0500000000E-01     0.000   1.
</event>
<event>
 13   1  9.2978750E-05  1.2500000E+02  7.5467720E-03  1.2380620E-01
   21   -1    0    0  502  501   0.0000000000E+00   0.0000000000E+00   1.8831168928E+01   1.8831168928E+01   0.0000000000E+00     0.000  -1.
   21   -1    0    0  501  502   0.0000000000E+00   0.0000000000E+00  -2.0743534376E+02   2.0743534376E+02   0.0000000000E+00     0.000  -1.
   25    2    1    2    0    0   0.0000000000E+00   0.0000000000E+00  -1.8860417483E+02   2.2626651269E+02   1.2500000000E+02  8.176E-09  -1.
3000002    2    3    0    0    0   2.3963319433E+01   5.1640119963E+01  -5.1264038025E+01   7.7258942930E+01   1.0000000000E+01  5.619E-10  -1.
3000002    2    3    0    0    0  -2.3963319433E+01  -5.1640119963E+01  -1.3734013680E+02   1.4900756976E+02   1.0000000000E+01  5.887E-10  -1.
3000001    1    4    0    0    0   1.6734659717E+01   2.4524789042E+01  -2.5110414788E+01   3.8897905396E+01   1.0000000000E+00     0.000  -1.
3000022   2   4   0   0   0   7.2286597163E+00   2.7115330921E+01   -2.6153623238E+01   3.8361037534E+01   2.5000000000E-01   1.278676E+01   0.
3000001    1    5    0    0    0  -3.7237052605E+00  -1.5029198199E+01  -2.9375008574E+01   3.3220985959E+01   1.0000000000E+00     0.000   1.
3000022   2   5   0   0   0   -2.0239614172E+01   -3.6610921765E+01   -1.0796512823E+02   1.1578658380E+02   2.5000000000E-01   2.543137E-01   0.
13    1    7    0    0    0   3.5465480621E+00   1.3350410189E+01  -1.2965097958E+01   1.8945084994E+01   1.0500000000E-01     0.000  -1.
-13    1    7    0    0    0   3.6821116543E+00   1.3764920732E+01  -1.3188525279E+01   1.9415952540E+01   1.0500000000E-01     0.000   1.
13    1    9    0    0    0  -8.8678055585E+00  -1.6107540961E+01  -4.7295401647E+01   5.0744033080E+01   1.0500000000E-01     0.000   1.
-13    1    9    0    0    0  -1.1371808614E+01  -2.0503380803E+01  -6.0669726583E+01   6.5042550720E+01   1.0500000000E-01     0.000  -1.
</event>
<event>
 13   1  9.2978750E-05  1.2500000E+02  7.5467720E-03  1.2380620E-01
   21   -1    0    0  502  501   0.0000000000E+00   0.0000000000E+00   4.8391517751E+01   4.8391517751E+01   0.0000000000E+00     0.000   1.
   21   -1    0    0  501  502   0.0000000000E+00   0.0000000000E+00  -8.0721791371E+01   8.0721791371E+01   0.0000000000E+00     0.000   1.
   25    2    1    2    0    0   0.0000000000E+00   0.0000000000E+00  -3.2330273620E+01   1.2911330912E+02   1.2500000000E+02  1.668E-08  -1.
3000002    2    3    0    0    0  -3.4220883745E+01   5.4302424191E+00   3.6560601616E+01   5.1354006733E+01   1.0000000000E+01  1.205E-10  -1.
3000002    2    3    0    0    0   3.4220883745E+01  -5.4302424191E+00  -6.8890875236E+01   7.7759302387E+01   1.0000000000E+01  1.547E-09  -1.
3000001    1    4    0    0    0  -1.7066719569E+01  -2.1018902287E+00   1.5588962054E+01   2.3231586198E+01   1.0000000000E+00     0.000  -1.
3000022   2   4   0   0   0   -1.7154164176E+01   7.5321326478E+00   2.0971639562E+01   2.8122420534E+01   2.5000000000E-01   3.375187E+00   0.
3000001    1    5    0    0    0   1.5149615837E+01   9.2723209044E-01  -2.2064541093E+01   2.6799525985E+01   1.0000000000E+00     0.000  -1.
3000022   2   5   0   0   0   1.9071267908E+01   -6.3574745095E+00   -4.6826334143E+01   5.0959776403E+01   2.5000000000E-01   5.501316E+00   0.
13    1    7    0    0    0  -4.3741234620E+00   1.9456157919E+00   5.3874202461E+00   7.2078914239E+00   1.0500000000E-01     0.000  -1.
-13    1    7    0    0    0  -1.2780040714E+01   5.5865168559E+00   1.5584219316E+01   2.0914529111E+01   1.0500000000E-01     0.000   1.
13    1    9    0    0    0   8.3217067641E+00  -2.7048235634E+00  -2.0394058630E+01   2.2192240229E+01   1.0500000000E-01     0.000  -1.
-13    1    9    0    0    0   1.0749561143E+01  -3.6526509461E+00  -2.6432275513E+01   2.8767536174E+01   1.0500000000E-01     0.000   1.
</event>
<event>
 13   1  9.2978750E-05  1.2500000E+02  7.5467720E-03  1.2380620E-01
   21   -1    0    0  502  501   0.0000000000E+00   0.0000000000E+00   2.5394211151E+02   2.5394211151E+02   0.0000000000E+00     0.000   1.
   21   -1    0    0  501  502   0.0000000000E+00   0.0000000000E+00  -1.5382442781E+01   1.5382442781E+01   0.0000000000E+00     0.000   1.
   25    2    1    2    0    0   0.0000000000E+00   0.0000000000E+00   2.3855966873E+02   2.6932455429E+02   1.2500000000E+02  3.277E-08  -1.
3000002    2    3    0    0    0  -5.9709301186E+01  -1.3763140205E+01   1.0379889430E+02   1.2094972152E+02   1.0000000000E+01  3.460E-12   1.
3000002    2    3    0    0    0   5.9709301186E+01   1.3763140205E+01   1.3476077443E+02   1.4837483277E+02   1.0000000000E+01  1.172E-10   1.
3000001    1    4    0    0    0  -9.7155046249E+00   1.1281713469E+00   1.4197263014E+01   1.7269223427E+01   1.0000000000E+00     0.000  -1.
3000022   2   4   0   0   0   -4.9993796561E+01   -1.4891311552E+01   8.9601631289E+01   1.0368049809E+02   2.5000000000E-01   2.059065E+01   0.
3000001    1    5    0    0    0   5.5130906251E+01   1.4464600275E+01   1.1906543823E+02   1.3200840908E+02   1.0000000000E+00     0.000   1.
3000022   2   5   0   0   0   4.5783949350E+00   -7.0146006953E-01   1.5695336192E+01   1.6366423696E+01   2.5000000000E-01   5.754674E+00   0.
13    1    7    0    0    0  -2.8418162173E+01  -8.3963451991E+00   5.0891016552E+01   5.8889703214E+01   1.0500000000E-01     0.000  -1.
-13    1    7    0    0    0  -2.1575634388E+01  -6.4949663530E+00   3.8710614738E+01   4.4790794875E+01   1.0500000000E-01     0.000   1.
13    1    9    0    0    0   3.0683393468E+00  -4.7538569092E-01   1.0699120641E+01   1.1141045974E+01   1.0500000000E-01     0.000   1.
-13    1    9    0    0    0   1.5100555882E+00  -2.2607437861E-01   4.9962155509E+00   5.2253777218E+00   1.0500000000E-01     0.000  -1.
</event>
<event>
 13   1  9.2978750E-05  1.2500000E+02  7.5467720E-03  1.2380620E-01
   21   -1    0    0  502  501   0.0000000000E+00   0.0000000000E+00   5.6995186420E+01   5.6995186420E+01   0.0000000000E+00     0.000  -1.
   21   -1    0    0  501  502   0.0000000000E+00   0.0000000000E+00  -6.8536489577E+01   6.8536489577E+01   0.0000000000E+00     0.000  -1.
   25    2    1    2    0    0   0.0000000000E+00   0.0000000000E+00  -1.1541303157E+01   1.2553167600E+02   1.2500000000E+02  3.162E-08  -1.
3000002    2    3    0    0    0  -3.5745115775E+01  -2.9775326604E+01  -4.6464192067E+01   6.6507176460E+01   1.0000000000E+01  2.479E-10   1.
3000002    2    3    0    0    0   3.5745115775E+01   2.9775326604E+01   3.4922888910E+01   5.9024499540E+01   1.0000000000E+01  6.886E-10   1.
3000001    1    4    0    0    0  -1.0852978890E+01  -5.4655553607E+00  -7.7128866346E+00   1.4427337468E+01   1.0000000000E+00     0.000  -1.
3000022   2   4   0   0   0   -2.4892136885E+01   -2.4309771243E+01   -3.8751305433E+01   5.2079838991E+01   2.5000000000E-01   1.732788E+00   0.
3000001    1    5    0    0    0   1.6690131357E+01   7.6597799464E+00   1.3470244662E+01   2.2796495450E+01   1.0000000000E+00     0.000   1.
3000022   2   5   0   0   0   1.9054984418E+01   2.2115546657E+01   2.1452644248E+01   3.6228004090E+01   2.5000000000E-01   1.670104E+00   0.
13    1    7    0    0    0  -1.5226838819E+01  -1.4871833179E+01  -2.3797904954E+01   3.1927720678E+01   1.0500000000E-01     0.000   1.
-13    1    7    0    0    0  -9.6652980663E+00  -9.4379380645E+00  -1.4953400479E+01   2.0152118313E+01   1.0500000000E-01     0.000  -1.
13    1    9    0    0    0   1.1406383272E+01   1.3297618012E+01   1.2936234667E+01   2.1778186712E+01   1.0500000000E-01     0.000  -1.
-13    1    9    0    0    0   7.6486011464E+00   8.8179286456E+00   8.5164095818E+00   1.4449817378E+01   1.0500000000E-01     0.000   1.
</event>
<event>
 13   1  9.2978750E-05  1.2500000E+02  7.5467720E-03  1.2380620E-01
   21   -1    0    0  502  501   0.0000000000E+00   0.0000000000E+00   3.7742780464E+02   3.7742780464E+02   0.0000000000E+00     0.000  -1.
   21   -1    0    0  501  502   0.0000000000E+00   0.0000000000E+00  -1.0349661450E+01   1.0349661450E+01   0.0000000000E+00     0.000  -1.
   25    2    1    2    0    0   0.0000000000E+00   0.0000000000E+00   3.6707814319E+02   3.8777746609E+02   1.2500000000E+02  9.371E-08  -1.
3000002    2    3    0    0    0   3.0679783971E+01   1.1429254521E+01   3.4575796470E+02   3.4744848130E+02   1.0000000000E+01  6.344E-10  -1.
3000002    2    3    0    0    0  -3.0679783971E+01  -1.1429254521E+01   2.1320178489E+01   4.0328984790E+01   1.0000000000E+01  3.198E-10  -1.
3000001    1    4    0    0    0   1.8238116096E+01   1.5737523332E+00   1.7861968116E+02   1.7955805766E+02   1.0000000000E+00     0.000  -1.
3000022   2   4   0   0   0   1.2441667875E+01   9.8555021875E+00   1.6713828354E+02   1.6789042364E+02   2.5000000000E-01   1.682473E+00   0.
3000001    1    5    0    0    0  -9.4476686872E+00  -5.6535927034E+00   2.4103191764E+00   1.1315086947E+01   1.0000000000E+00     0.000  -1.
3000022   2   5   0   0   0   -2.1232115284E+01   -5.7756618173E+00   1.8909859312E+01   2.9013897843E+01   2.5000000000E-01   5.491516E+00   0.
13    1    7    0    0    0   3.5573964791E+00   2.8645542851E+00   4.8327146218E+01   4.8542608372E+01   1.0500000000E-01     0.000  -1.
-13    1    7    0    0    0   8.8842713958E+00   6.9909479023E+00   1.1881113732E+02   1.1934781526E+02   1.0500000000E-01     0.000   1.
13    1    9    0    0    0  -1.0913902051E+01  -2.9247570463E+00   9.7797144833E+00   1.4943938642E+01   1.0500000000E-01     0.000   1.
-13    1    9    0    0    0  -1.0318213233E+01  -2.8509047710E+00   9.1301448291E+00   1.4069959201E+01   1.0500000000E-01     0.000  -1.
</event>
<event>
 13   1  9.2978750E-05  1.2500000E+02  7.5467720E-03  1.2380620E-01
   21   -1    0    0  502  501   0.0000000000E+00   0.0000000000E+00   1.2055552808E+01   1.2055552808E+01   0.0000000000E+00     0.000   1.
   21   -1    0    0  501  502   0.0000000000E+00   0.0000000000E+00  -3.2402081116E+02   3.2402081116E+02   0.0000000000E+00     0.000   1.
   25    2    1    2    0    0   0.0000000000E+00   0.0000000000E+00  -3.1196525836E+02   3.3607636397E+02   1.2500000000E+02  1.403E-07  -1.
3000002    2    3    0    0    0  -5.0405762760E+01  -9.2779452160E+00  -6.3648167107E+01   8.2328065463E+01   1.0000000000E+01  1.425E-10  -1.
3000002    2    3    0    0    0   5.0405762760E+01   9.2779452160E+00  -2.4831709125E+02   2.5374829851E+02   1.0000000000E+01  2.536E-10  -1.
3000001    1    4    0    0    0  -1.9175616118E+01  -3.6885052972E+00  -3.2094368810E+01   3.7581349552E+01   1.0000000000E+00     0.000   1.
3000022   2   4   0   0   0   -3.1230146642E+01   -5.5894399188E+00   -3.1553798297E+01   4.4746715911E+01   2.5000000000E-01   9.460516E-01   0.
3000001    1    5    0    0    0   2.3038725412E+01   6.3595238093E+00  -9.4004125498E+01   9.7000010424E+01   1.0000000000E+00     0.000  -1.
3000022   2   5   0   0   0   2.7367037347E+01   2.9184214067E+00   -1.5431296576E+02   1.5674828808E+02   2.5000000000E-01   7.528067E+00   0.
13    1    7    0    0    0  -2.1875489272E+01  -3.8990398721E+00  -2.2159443861E+01   3.1381388115E+01   1.0500000000E-01     0.000  -1.
-13    1    7    0    0    0  -9.3546573701E+00  -1.6904000466E+00  -9.3943544361E+00   1.3365327796E+01   1.0500000000E-01     0.000   1.
13    1    9    0    0    0   8.8163829468E+00   9.4610017571E-01  -4.9428435249E+01   5.0217576106E+01   1.0500000000E-01     0.000   1.
-13    1    9    0    0    0   1.8550654401E+01   1.9723212310E+00  -1.0488453051E+02   1.0653071198E+02   1.0500000000E-01     0.000  -1.
</event>
<event>
 13   1  9.2978750E-05  1.2500000E+02  7.5467720E-03  1.2380620E-01
   21   -1    0    0  502  501   0.0000000000E+00   0.0000000000E+00   1.6804532600E+02   1.6804532600E+02   0.0000000000E+00     0.000   1.
   21   -1    0    0  501  502   0.0000000000E+00   0.0000000000E+00  -2.3245216591E+01   2.3245216591E+01   0.0000000000E+00     0.000   1.
   25    2    1    2    0    0   0.0000000000E+00   0.0000000000E+00   1.4480010941E+02   1.9129054259E+02   1.2500000000E+02  9.484E-09  -1.
3000002    2    3    0    0    0  -1.7444892706E+01  -5.8348766840E+01   5.7301163552E+01   8.4215949901E+01   1.0000000000E+01  4.600E-10  -1.
3000002    2    3    0    0    0   1.7444892706E+01   5.8348766840E+01   8.7498945858E+01   1.0707459269E+02   1.0000000000E+01  1.031E-10  -1.
3000001    1    4    0    0    0  -6.4590599818E+00  -2.3345604270E+01   1.6387764839E+01   2.9262527762E+01   1.0000000000E+00     0.000  -1.
3000022   2   4   0   0   0   -1.0985832725E+01   -3.5003162570E+01   4.0913398714E+01   5.4953422140E+01   2.5000000000E-01   6.618993E+00   0.
3000001    1    5    0    0    0   9.6985584103E+00   4.6438378780E+01   6.9202753922E+01   8.3908320263E+01   1.0000000000E+00     0.000  -1.
3000022   2   5   0   0   0   7.7463342961E+00   1.1910388060E+01   1.8296191936E+01   2.3166272426E+01   2.5000000000E-01   1.107675E+00   0.
13    1    7    0    0    0  -5.8689693357E+00  -1.8861326707E+01   2.2098758570E+01   2.9640522963E+01   1.0500000000E-01     0.000   1.
-13    1    7    0    0    0  -5.1168633890E+00  -1.6141835863E+01   1.8814640144E+01   2.5312899176E+01   1.0500000000E-01     0.000  -1.
13    1    9    0    0    0   3.6009118307E+00   5.5107700123E+00   8.3702631682E+00   1.0649294937E+01   1.0500000000E-01     0.000   1.
-13    1    9    0    0    0   4.1454224654E+00   6.3996180472E+00   9.9259287674E+00   1.2516977489E+01   1.0500000000E-01     0.000  -1.
</event>
<event>
 13   1  9.2978750E-05  1.2500000E+02  7.5467720E-03  1.2380620E-01
   21   -1    0    0  502  501   0.0000000000E+00   0.0000000000E+00   1.3810584393E+02   1.3810584393E+02   0.0000000000E+00     0.000  -1.
   21   -1    0    0  501  502   0.0000000000E+00   0.0000000000E+00  -2.8284465660E+01   2.8284465660E+01   0.0000000000E+00     0.000  -1.
   25    2    1    2    0    0   0.0000000000E+00   0.0000000000E+00   1.0982137827E+02   1.6639030959E+02   1.2500000000E+02  2.701E-09  -1.
3000002    2    3    0    0    0   2.1214730504E+01   2.5492742273E-01  -2.2203939519E+01   3.2297750827E+01   1.0000000000E+01  5.850E-10   1.
3000002    2    3    0    0    0  -2.1214730504E+01  -2.5492742273E-01   1.3202531779E+02   1.3409255876E+02   1.0000000000E+01  3.906E-10   1.
3000001    1    4    0    0    0   1.5275458268E+01  -1.4573536048E+00  -9.2567405745E+00   1.7948558463E+01   1.0000000000E+00     0.000   1.
3000022   2   4   0   0   0   5.9392722358E+00   1.7122810276E+00   -1.2947198944E+01   1.4349192364E+01   2.5000000000E-01   4.675880E+00   0.
3000001    1    5    0    0    0  -1.3910256394E+01   2.2727973993E+00   1.0614819319E+02   1.0708454491E+02   1.0000000000E+00     0.000  -1.
3000022   2   5   0   0   0   -7.3044741105E+00   -2.5277248221E+00   2.5877124598E+01   2.7008013852E+01   2.5000000000E-01   1.171608E+00   0.
13    1    7    0    0    0   2.3889732139E+00   7.5042757573E-01  -5.2986501967E+00   5.8614890147E+00   1.0500000000E-01     0.000  -1.
-13    1    7    0    0    0   3.5502990219E+00   9.6185345183E-01  -7.6485487474E+00   8.4877033495E+00   1.0500000000E-01     0.000   1.
13    1    9    0    0    0  -3.8636026684E+00  -1.3166479626E+00   1.3890114717E+01   1.4477820944E+01   1.0500000000E-01     0.000  -1.
-13    1    9    0    0    0  -3.4408714421E+00  -1.2110768595E+00   1.1987009881E+01   1.2530192908E+01   1.0500000000E-01     0.000   1.
</event>
<event>
 13   1  9.2978750E-05  1.2500000E+02  7.5467720E-03  1.2380620E-01
   21   -1    0    0  502  501   0.0000000000E+00   0.0000000000E+00   4.5446680368E+01   4.5446680368E+01   0.0000000000E+00     0.000  -1.
   21   -1    0    0  501  502   0.0000000000E+00   0.0000000000E+00  -8.5952372503E+01   8.5952372503E+01   0.0000000000E+00     0.000  -1.
   25    2    1    2    0    0   0.0000000000E+00   0.0000000000E+00  -4.0505692135E+01   1.3139905287E+02   1.2500000000E+02  3.360E-08  -1.
3000002    2    3    0    0    0   5.4389208936E+01  -2.9918569128E+00  -5.0703202473E+01   7.5086297001E+01   1.0000000000E+01  8.109E-10  -1.
3000002    2    3    0    0    0  -5.4389208936E+01   2.9918569128E+00   1.0197510338E+01   5.6312755869E+01   1.0000000000E+01  1.782E-09  -1.
3000001    1    4    0    0    0   3.0592598139E+01   1.8511692658E-01  -2.2164410254E+01   3.7791565343E+01   1.0000000000E+00     0.000  -1.
3000022   2   4   0   0   0   2.3796610797E+01   -3.1769738393E+00   -2.8538792219E+01   3.7294731659E+01   2.5000000000E-01   2.121504E+00   0.
3000001    1    5    0    0    0  -2.2784458622E+01  -2.5021422012E+00   7.4190920627E+00   2.4112967410E+01   1.0000000000E+00     0.000  -1.
3000022   2   5   0   0   0   -3.1604750314E+01   5.4939991140E+00   2.7784182749E+00   3.2199788459E+01   2.5000000000E-01   2.335077E+00   0.
13    1    7    0    0    0   1.3524391347E+01  -1.7444569371E+00  -1.6170384082E+01   2.1152887218E+01   1.0500000000E-01     0.000   1.
-13    1    7    0    0    0   1.0272219450E+01  -1.4325169023E+00  -1.2368408137E+01   1.6141844441E+01   1.0500000000E-01     0.000  -1.
13    1    9    0    0    0  -2.2786973362E+01   3.9230096157E+00   1.9907465723E+00   2.3207978291E+01   1.0500000000E-01     0.000  -1.
-13    1    9    0    0    0  -8.8177769515E+00   1.5709894983E+00   7.8767170261E-01   8.9918101671E+00   1.0500000000E-01     0.000   1.
</event>
<event>
 13   1  9.2978750E-05  1.2500000E+02  7.5467720E-03  1.2380620E-01
   21   -1    0    0  502  501   0.0000000000E+00   0.0000000000E+00   1.3631009424E+01   1.3631009424E+01   0.0000000000E+00     0.000   1.
   21   -1    0    0  501  502   0.0000000000E+00   0.0000000000E+00  -2.8657085316E+02   2.8657085316E+02   0.0000000000E+00     0.000   1.
   25    2    1    2    0    0   0.0000000000E+00   0.0000000000E+00  -2.7293984374E+02   3.0020186258E+02   1.2500000000E+02  3.625E-09  -1.
3000002    2    3    0    0    0   3.9329236045E+01  -1.2199773212E+00  -2.2349668558E+01   4.6344199606E+01   1.0000000000E+01  4.008E-10   1.
3000002    2    3    0    0    0  -3.9329236045E+01   1.2199773212E+00  -2.5059017518E+02   2.5385766297E+02   1.0000000000E+01  1.436E-09   1.
3000001    1    4    0    0    0   1.0861818660E+01  -4.5622613108E+00  -4.9905206375E+00   1.2833496371E+01   1.0000000000E+00     0.000   1.
3000022   2   4   0   0   0   2.8467417384E+01   3.3422839895E+00   -1.7359147920E+01   3.3510703235E+01   2.5000000000E-01   3.488632E+00   0.
3000001    1    5    0    0    0  -2.0151988835E+00  -8.7069164200E-01  -3.2412031902E+01   3.2501675995E+01   1.0000000000E+00     0.000  -1.
3000022   2   5   0   0   0   -3.7314037161E+01   2.0906689632E+00   -2.1817814328E+02   2.2135598698E+02   2.5000000000E-01   1.916400E+00   0.
13    1    7    0    0    0   1.6997208270E+01   2.0555351454E+00  -1.0394026150E+01   2.0029406340E+01   1.0500000000E-01     0.000   1.
-13    1    7    0    0    0   1.1470209114E+01   1.2867488442E+00  -6.9651217702E+00   1.3481296895E+01   1.0500000000E-01     0.000  -1.
13    1    9    0    0    0  -1.4900295007E+01   8.6294114103E-01  -8.6799352087E+01   8.8073276347E+01   1.0500000000E-01     0.000  -1.
-13    1    9    0    0    0  -2.2413742155E+01   1.2277278222E+00  -1.3137879119E+02   1.3328271063E+02   1.0500000000E-01     0.000   1.
</event>
<event>
 13   1  9.2978750E-05  1.2500000E+02  7.5467720E-03  1.2380620E-01
   21   -1    0    0  502  501   0.0000000000E+00   0.0000000000E+00   1.2738741897E+01   1.2738741897E+01   0.0000000000E+00     0.000  -1.
   21   -1    0    0  501  502   0.0000000000E+00   0.0000000000E+00  -3.0664331153E+02   3.0664331153E+02   0.0000000000E+00     0.000  -1.
   25    2    1    2    0    0   0.0000000000E+00   0.0000000000E+00  -2.9390456963E+02   3.1938205342E+02   1.2500000000E+02  1.254E-08  -1.
3000002    2    3    0    0    0   2.6870210603E+01   5.5486427856E+01  -1.4096117855E+02   1.5417783807E+02   1.0000000000E+01  3.955E-10  -1.
3000002    2    3    0    0    0  -2.6870210603E+01  -5.5486427856E+01  -1.5294339108E+02   1.6520421535E+02   1.0000000000E+01  9.417E-10  -1.
3000001    1    4    0    0    0   1.0564973627E+00   4.6044681787E+00  -6.3776187251E+00   7.9994583872E+00   1.0000000000E+00     0.000  -1.
3000022   2   4   0   0   0   2.5813713240E+01   5.0881959677E+01   -1.3458355983E+02   1.4617837969E+02   2.5000000000E-01   3.666471E+00   0.
3000001    1    5    0    0    0  -1.9697934397E+01  -4.6934035658E+01  -1.1780612617E+02   1.2833587061E+02   1.0000000000E+00     0.000  -1.
3000022   2   5   0   0   0   -7.1722762056E+00   -8.5523921983E+00   -3.5137264906E+01   3.6868344733E+01   2.5000000000E-01   7.803125E+00   0.
13    1    7    0    0    0   1.1349884061E+01   2.2459829605E+01  -5.9223530090E+01   6.4348281682E+01   1.0500000000E-01     0.000   1.
-13    1    7    0    0    0   1.4463829179E+01   2.8422130072E+01  -7.5360029739E+01   8.1830098005E+01   1.0500000000E-01     0.000  -1.
13    1    9    0    0    0  -2.9699264810E+00  -3.4891781534E+00  -1.4245315928E+01   1.4964453829E+01   1.0500000000E-01     0.000   1.
-13    1    9    0    0    0  -4.2023497246E+00  -5.0632140450E+00  -2.0891948978E+01   2.1903890905E+01   1.0500000000E-01     0.000  -1.
</event>
<event>
 13   1  9.2978750E-05  1.2500000E+02  7.5467720E-03  1.2380620E-01
   21   -1    0    0  502  501   0.0000000000E+00   0.0000000000E+00   3.6149284506E+01   3.6149284506E+01   0.0000000000E+00     0.000   1.
   21   -1    0    0  501  502   0.0000000000E+00   0.0000000000E+00  -1.0805884690E+02   1.0805884690E+02   0.0000000000E+00     0.000   1.
   25    2    1    2    0    0   0.0000000000E+00   0.0000000000E+00  -7.1909562393E+01   1.4420813141E+02   1.2500000000E+02  2.313E-08  -1.
3000002    2    3    0    0    0   1.3045486542E+01  -1.1314193519E+01  -1.0428501242E+02   1.0617701969E+02   1.0000000000E+01  2.132E-09   1.
3000002    2    3    0    0    0  -1.3045486542E+01   1.1314193519E+01   3.2375450030E+01   3.8031111721E+01   1.0000000000E+01  2.126E-10   1.
3000001    1    4    0    0    0   3.8493912335E+00  -1.5663697274E+00  -5.2909277436E+01   5.3081663179E+01   1.0000000000E+00     0.000   1.
3000022   2   4   0   0   0   9.1960953082E+00   -9.7478237912E+00   -5.1375734986E+01   5.3095356510E+01   2.5000000000E-01   6.053803E+00   0.
3000001    1    5    0    0    0  -4.7745698485E+00  -8.8232768468E-01   5.6945010962E+00   7.5499908686E+00   1.0000000000E+00     0.000  -1.
3000022   2   5   0   0   0   -8.2709166932E+00   1.2196521203E+01   2.6680948934E+01   3.0481120852E+01   2.5000000000E-01   2.590239E+00   0.
13    1    7    0    0    0   2.7484061218E+00  -2.9752194440E+00  -1.5456509759E+01   1.5978747945E+01   1.0500000000E-01     0.000  -1.
-13    1    7    0    0    0   6.4476891864E+00  -6.7726043472E+00  -3.5919225227E+01   3.7116608566E+01   1.0500000000E-01     0.000   1.
13    1    9    0    0    0  -2.9768086254E+00   4.4296807008E+00   9.7753495290E+00   1.1137860841E+01   1.0500000000E-01     0.000  -1.
-13    1    9    0    0    0  -5.2941080678E+00   7.7668405025E+00   1.6905599404E+01   1.9343260011E+01   1.0500000000E-01     0.000   1.
</event>
<event>
 13   1  9.2978750E-05  1.2500000E+02  7.5467720E-03  1.2380620E-01
   21   -1    0    0  502  501   0.0000000000E+00   0.0000000000E+00   4.8603055325E+01   4.8603055325E+01   0.0000000000E+00     0.000  -1.
   21   -1    0    0  501  502   0.0000000000E+00   0.0000000000E+00  -8.0370461772E+01   8.0370461772E+01   0.0000000000E+00     0.000  -1.
   25    2    1    2    0    0   0.0000000000E+00   0.0000000000E+00  -3.1767406447E+01   1.2897351710E+02   1.2500000000E+02  4.519E-08  -1.
3000002    2    3    0    0    0  -4.0891160650E+01  -3.1304028446E+01   1.9170086354E+01   5.5852676096E+01   1.0000000000E+01  2.772E-10   1.
3000002    2    3    0    0    0   4.0891160650E+01   3.1304028446E+01  -5.0937492801E+01   7.3120841004E+01   1.0000000000E+01  2.065E-09   1.
3000001    1    4    0    0    0  -3.0833168426E+01  -2.0190482992E+01   9.7109822639E+00   3.8126671179E+01   1.0000000000E+00     0.000   1.
3000022   2   4   0   0   0   -1.0057992224E+01   -1.1113545454E+01   9.4591040906E+00   1.7726004917E+01   2.5000000000E-01   1.254189E+00   0.
3000001    1    5    0    0    0   3.8266903868E+01   3.0291714603E+01  -4.4349584577E+01   6.5953237657E+01   1.0000000000E+00     0.000   1.
3000022   2   5   0   0   0   2.6242567814E+00   1.0123138434E+00   -6.5879082244E+00   7.1676033474E+00   2.5000000000E-01   5.884768E+00   0.
13    1    7    0    0    0  -6.9903014394E+00  -7.7379967587E+00   6.6345645786E+00   1.2359991108E+01   1.0500000000E-01     0.000  -1.
-13    1    7    0    0    0  -3.0676907846E+00  -3.3755486950E+00   2.8245395120E+00   5.3660138089E+00   1.0500000000E-01     0.000   1.
13    1    9    0    0    0   1.0194749963E+00   3.4189235539E-01  -2.4258224796E+00   2.6555337229E+00   1.0500000000E-01     0.000  -1.
-13    1    9    0    0    0   1.6047817851E+00   6.7042148806E-01  -4.1620857448E+00   4.5120696245E+00   1.0500000000E-01     0.000   1.
</event>
<event>
 13   1  9.2978750E-05  1.2500000E+02  7.5467720E-03  1.2380620E-01
   21   -1    0    0  502  501   0.0000000000E+00   0.0000000000E+00   8.5681358456E+00   8.5681358456E+00   0.0000000000E+00     0.000  -1.
   21   -1    0    0  501  502   0.0000000000E+00   0.0000000000E+00  -4.5590430292E+02   4.5590430292E+02   0.0000000000E+00     0.000  -1.
   25    2    1    2    0    0   0.0000000000E+00   0.0000000000E+00  -4.4733616707E+02   4.6447243876E+02   1.2500000000E+02  6.179E-08  -1.
3000002    2    3    0    0    0   3.6063012590E+01   1.2654188330E+01  -4.3708441836E+01   5.8916018595E+01   1.0000000000E+01  5.681E-11   1.
3000002    2    3    0    0    0  -3.6063012590E+01  -1.2654188330E+01  -4.0362772523E+02   4.0555642016E+02   1.0000000000E+01  5.605E-10   1.
3000001    1    4    0    0    0   1.2691214614E+01   2.6496609517E+00  -8.6834094323E+00   1.5636151410E+01   1.0000000000E+00     0.000   1.
3000022   2   4   0   0   0   2.3371797976E+01   1.0004527378E+01   -3.5025032404E+01   4.3279867185E+01   2.5000000000E-01   9.246933E+00   0.
3000001    1    5    0    0    0  -2.1726071726E+01  -2.5529837338E+00  -2.3578400084E+02   2.3679872249E+02   1.0000000000E+00     0.000  -1.
3000022   2   5   0   0   0   -1.4336940864E+01   -1.0101204596E+01   -1.6784372439E+02   1.6875769768E+02   2.5000000000E-01   1.530583E+00   0.
13    1    7    0    0    0   9.8001615922E+00   4.1731392106E+00  -1.4570224952E+01   1.8048843128E+01   1.0500000000E-01     0.000  -1.
-13    1    7    0    0    0   1.3571636384E+01   5.8313881672E+00  -2.0454807451E+01   2.5231024057E+01   1.0500000000E-01     0.000   1.
13    1    9    0    0    0  -5.3900778713E+00  -3.8083548809E+00  -6.3740089602E+01   6.4080937523E+01   1.0500000000E-01     0.000  -1.
-13    1    9    0    0    0  -8.9468629926E+00  -6.2928497149E+00  -1.0410363479E+02   1.0467676016E+02   1.0500000000E-01     0.000   1.
</event>
<event>
 13   1  9.2978750E-05  1.2500000E+02  7.5467720E-03  1.2380620E-01
   21   -1    0    0  502  501   0.0000000000E+00   0.0000000000E+00   4.2271773770E+01   4.2271773770E+01   0.0000000000E+00     0.000  -1.
   21   -1    0    0  501  502   0.0000000000E+00   0.0000000000E+00  -9.2407998332E+01   9.2407998332E+01   0.0000000000E+00     0.000  -1.
   25    2    1    2    0    0   0.0000000000E+00   0.0000000000E+00  -5.0136224562E+01   1.3467977210E+02   1.2500000000E+02  3.852E-08  -1.
3000002    2    3    0    0    0  -3.9511690188E+01   3.4246517615E+01  -6.0349110732E+01   8.0473677662E+01   1.0000000000E+01  1.638E-10   1.
3000002    2    3    0    0    0   3.9511690188E+01  -3.4246517615E+01   1.0212886170E+01   5.4206094438E+01   1.0000000000E+01  2.768E-11   1.
3000001    1    4    0    0    0  -2.1255174362E+01   1.2720490593E+01  -2.4606359513E+01   3.4929446697E+01   1.0000000000E+00     0.000   1.
3000022   2   4   0   0   0   -1.8256515827E+01   2.1526027023E+01   -3.5742751219E+01   4.5544230965E+01   2.5000000000E-01   1.317578E+01   0.
3000001    1    5    0    0    0   8.4539304102E+00  -4.4250156373E+00   5.0435901161E+00   1.0839165283E+01   1.0000000000E+00     0.000   1.
3000022   2   5   0   0   0   3.1057759778E+01   -2.9821501978E+01   5.1692960536E+00   4.3366929155E+01   2.5000000000E-01   5.421277E+00   0.
13    1    7    0    0    0  -9.8097263633E+00   1.1666780565E+01  -1.9329970846E+01   2.4617134236E+01   1.0500000000E-01     0.000  -1.
-13    1    7    0    0    0  -8.4467894633E+00   9.8592464581E+00  -1.6412780373E+01   2.0927096729E+01   1.0500000000E-01     0.000   1.
13    1    9    0    0    0   1.8850077794E+01  -1.8037034657E+01   3.0888508733E+00   2.6271887576E+01   1.0500000000E-01     0.000  -1.
-13    1    9    0    0    0   1.2207681984E+01  -1.1784467321E+01   2.0804451803E+00   1.7095041579E+01   1.0500000000E-01     0.000   1.
</event>
<event>
 13   1  9.2978750E-05  1.2500000E+02  7.5467720E-03  1.2380620E-01
   21   -1    0    0  502  501   0.0000000000E+00   0.0000000000E+00   1.0690163980E+02   1.0690163980E+02   0.0000000000E+00     0.000   1.
   21   -1    0    0  501  502   0.0000000000E+00   0.0000000000E+00  -3.6540599444E+01   3.6540599444E+01   0.0000000000E+00     0.000   1.
   25    2    1    2    0    0   0.0000000000E+00   0.0000000000E+00   7.0361040359E+01   1.4344223925E+02   1.2500000000E+02  1.797E-08  -1.
3000002    2    3    0    0    0  -7.2686785046E-01   6.1064545945E+01   4.5239846426E+01   7.6655403025E+01   1.0000000000E+01  1.899E-09   1.
3000002    2    3    0    0    0   7.2686785046E-01  -6.1064545945E+01   2.5121193933E+01   6.6786836225E+01   1.0000000000E+01  2.165E-10   1.
3000001    1    4    0    0    0   2.7622101130E-01   5.5372203558E+01   4.4013516187E+01   7.0741408185E+01   1.0000000000E+00     0.000   1.
3000022   2   4   0   0   0   -1.0030888618E+00   5.6923423865E+00   1.2263302394E+00   5.9139948398E+00   2.5000000000E-01   9.299045E+00   0.
3000001    1    5    0    0    0   2.7857464611E+00  -3.2624180507E+01   1.8072347876E+01   3.7412662227E+01   1.0000000000E+00     0.000  -1.
3000022   2   5   0   0   0   -2.0588786107E+00   -2.8440365437E+01   7.0488460565E+00   2.9374173998E+01   2.5000000000E-01   8.750062E+00   0.
13    1    7    0    0    0  -6.6291880677E-01   4.0131774692E+00   8.5171831589E-01   4.1571028173E+00   1.0500000000E-01     0.000   1.
-13    1    7    0    0    0  -3.4017005499E-01   1.6791649172E+00   3.7461192355E-01   1.7568920225E+00   1.0500000000E-01     0.000  -1.
13    1    9    0    0    0  -1.3197887900E+00  -1.8971215750E+01   4.7022693663E+00   1.9590079930E+01   1.0500000000E-01     0.000  -1.
-13    1    9    0    0    0  -7.3908982062E-01  -9.4691496878E+00   2.3465766902E+00   9.7840940683E+00   1.0500000000E-01     0.000   1.
</event>
<event>
 13   1  9.2978750E-05  1.2500000E+02  7.5467720E-03  1.2380620E-01
   21   -1    0    0  502  501   0.0000000000E+00   0.0000000000E+00   9.6538424673E+01   9.6538424673E+01   0.0000000000E+00     0.000   1.
   21   -1    0    0  501  502   0.0000000000E+00   0.0000000000E+00  -4.0463162862E+01   4.0463162862E+01   0.0000000000E+00     0.000   1.
   25    2    1    2    0    0   0.0000000000E+00   0.0000000000E+00   5.6075261811E+01   1.3700158754E+02   1.2500000000E+02  1.971E-08  -1.
3000002    2    3    0    0    0  -5.2659836836E+01  -1.6731015876E+01   5.8118431612E+01   8.0812977923E+01   1.0000000000E+01  1.054E-10   1.
3000002    2    3    0    0    0   5.2659836836E+01   1.6731015876E+01  -2.0431698011E+00   5.6188609617E+01   1.0000000000E+01  3.932E-10   1.
3000001    1    4    0    0    0  -3.6843200396E+01  -1.0501616540E+01   4.6322387388E+01   6.0120453581E+01   1.0000000000E+00     0.000   1.
3000022   2   4   0   0   0   -1.5816636440E+01   -6.2293993362E+00   1.1796044224E+01   2.0692524343E+01   2.5000000000E-01   1.969802E+00   0.
3000001    1    5    0    0    0   4.7857052346E+01   1.6922504963E+01  -4.1386255064E+00   5.0939148546E+01   1.0000000000E+00     0.000   1.
3000022   2   5   0   0   0   4.8027844892E+00   -1.9148908631E-01   2.0954557053E+00   5.2494610706E+00   2.5000000000E-01   3.064681E+00   0.
13    1    7    0    0    0  -8.2708845839E+00  -3.3281171486E+00   6.2053768460E+00   1.0862855166E+01   1.0500000000E-01     0.000   1.
-13    1    7    0    0    0  -7.5457518558E+00  -2.9012821876E+00   5.5906673778E+00   9.8296691771E+00   1.0500000000E-01     0.000  -1.
13    1    9    0    0    0   3.0500151807E+00  -6.9438198014E-02   1.3589899627E+00   3.3414507305E+00   1.0500000000E-01     0.000  -1.
-13    1    9    0    0    0   1.7527693084E+00  -1.2205088830E-01   7.3646574257E-01   1.9080103401E+00   1.0500000000E-01     0.000   1.
</event>
<event>
 13   1  9.2978750E-05  1.2500000E+02  7.5467720E-03  1.2380620E-01
   21   -1    0    0  502  501   0.0000000000E+00   0.0000000000E+00   1.3297786509E+01   1.3297786509E+01   0.0000000000E+00     0.000  -1.
   21   -1    0    0  501  502   0.0000000000E+00   0.0000000000E+00  -2.9375189603E+02   2.9375189603E+02   0.0000000000E+00     0.000  -1.
   25    2    1    2    0    0   0.0000000000E+00   0.0000000000E+00  -2.8045410952E+02   3.0704968254E+02   1.2500000000E+02  3.723E-08  -1.
3000002    2    3    0    0    0   4.1141474145E+00  -4.2390605280E+01  -3.0583631237E+01   5.3378348837E+01   1.0000000000E+01  2.486E-10   1.
3000002    2    3    0    0    0  -4.1141474145E+00   4.2390605280E+01  -2.4987047828E+02   2.5367133370E+02   1.0000000000E+01  7.817E-11   1.
3000001    1    4    0    0    0   4.3926166721E+00  -4.1533441448E+01  -3.1298828913E+01   5.2200943776E+01   1.0000000000E+00     0.000   1.
3000022   2   4   0   0   0   -2.7846925768E-01   -8.5716383201E-01   7.1519767636E-01   1.1774050614E+00   2.5000000000E-01   5.290077E+00   0.
3000001    1    5    0    0    0  -6.6676963673E-01   1.1726723010E+00  -2.2991521390E+01   2.3052761177E+01   1.0000000000E+00     0.000   1.
3000022   2   5   0   0   0   -3.4473777777E+00   4.1217932979E+01   -2.2687895689E+02   2.3061857253E+02   2.5000000000E-01   1.355016E+01   0.
13    1    7    0    0    0  -1.0024619961E-01  -2.0730612703E-01   2.0519841215E-01   3.2581669569E-01   1.0500000000E-01     0.000  -1.
-13    1    7    0    0    0  -1.7822305807E-01  -6.4985770497E-01   5.0999926422E-01   8.5158836573E-01   1.0500000000E-01     0.000   1.
13    1    9    0    0    0  -1.7418173772E+00   2.1217214297E+01  -1.1644153278E+02   1.1837164226E+02   1.0500000000E-01     0.000  -1.
-13    1    9    0    0    0  -1.7055604005E+00   2.0000718682E+01  -1.1043742411E+02   1.1224693027E+02   1.0500000000E-01     0.000   1.
</event>
<event>
 13   1  9.2978750E-05  1.2500000E+02  7.5467720E-03  1.2380620E-01
   21   -1    0    0  502  501   0.0000000000E+00   0.0000000000E+00   4.7482044840E+01   4.7482044840E+01   0.0000000000E+00     0.000  -1.
   21   -1    0    0  501  502   0.0000000000E+00   0.0000000000E+00  -8.2267939663E+01   8.2267939663E+01   0.0000000000E+00     0.000  -1.
   25    2    1    2    0    0   0.0000000000E+00   0.0000000000E+00  -3.4785894822E+01   1.2974998450E+02   1.2500000000E+02  7.122E-09  -1.
3000002    2    3    0    0    0  -4.0442843746E+01   3.6958548825E+01  -4.6837988130E+01   7.2769190414E+01   1.0000000000E+01  3.287E-10   1.
3000002    2    3    0    0    0   4.0442843746E+01  -3.6958548825E+01   1.2052093308E+01   5.6980794086E+01   1.0000000000E+01  4.908E-10   1.
3000001    1    4    0    0    0  -2.8787192007E+01   2.0449693296E+01  -2.7140205295E+01   4.4547537789E+01   1.0000000000E+00     0.000   1.
3000022   2   4   0   0   0   -1.1655651739E+01   1.6508855529E+01   -1.9697782834E+01   2.8221652626E+01   2.5000000000E-01   1.008813E+01   0.
3000001    1    5    0    0    0   1.5145451540E+01  -1.0992448510E+01   8.4237218810E+00   2.0546963691E+01   1.0000000000E+00     0.000  -1.
3000022   2   5   0   0   0   2.5297392206E+01   -2.5966100315E+01   3.6283714265E+00   3.6433830394E+01   2.5000000000E-01   1.377116E+00   0.
13    1    7    0    0    0  -5.3340711530E+00   7.4802956526E+00  -9.0263939895E+00   1.2879982592E+01   1.0500000000E-01     0.000  -1.
-13    1    7    0    0    0  -6.3215805860E+00   9.0285598766E+00  -1.0671388845E+01   1.5341670034E+01   1.0500000000E-01     0.000   1.
13    1    9    0    0    0   1.8544845765E+01  -1.9015680991E+01   2.6261282603E+00   2.6691103436E+01   1.0500000000E-01     0.000   1.
-13    1    9    0    0    0   6.7525464405E+00  -6.9504193242E+00   1.0022431662E+00   9.7427269580E+00   1.0500000000E-01     0.000  -1.
</event>
<event>
 13   1  9.2978750E-05  1.2500000E+02  7.5467720E-03  1.2380620E-01
   21   -1    0    0  502  501   0.0000000000E+00   0.0000000000E+00   1.1811281827E+02   1.1811281827E+02   0.0000000000E+00     0.000   1.
   21   -1    0    0  501  502   0.0000000000E+00   0.0000000000E+00  -3.3072193664E+01   3.3072193664E+01   0.0000000000E+00     0.000   1.
   25    2    1    2    0    0   0.0000000000E+00   0.0000000000E+00   8.5040624604E+01   1.5118501193E+02   1.2500000000E+02  1.713E-08  -1.
3000002    2    3    0    0    0  -5.4448490023E+01   2.8954948329E+01   4.4691624289E+01   7.6813855391E+01   1.0000000000E+01  2.369E-10   1.
3000002    2    3    0    0    0   5.4448490023E+01  -2.8954948329E+01   4.0349000315E+01   7.4371156539E+01   1.0000000000E+01  2.166E-09   1.
3000001    1    4    0    0    0  -4.8243586596E+01   2.6041862436E+01   3.5408921807E+01   6.5271846843E+01   1.0000000000E+00     0.000   1.
3000022   2   4   0   0   0   -6.2049034268E+00   2.9130858928E+00   9.2827024823E+00   1.1542008548E+01   2.5000000000E-01   1.002793E+01   0.
3000001    1    5    0    0    0   1.6423579536E+01  -1.3563770413E+01   1.6082332124E+01   2.6708636040E+01   1.0000000000E+00     0.000   1.
3000022   2   5   0   0   0   3.8024910487E+01   -1.5391177917E+01   2.4266668190E+01   4.7662520498E+01   2.5000000000E-01   1.660525E+00   0.
13    1    7    0    0    0  -1.7559314659E+00   8.6902193242E-01   2.6722426527E+00   3.3151772542E+00   1.0500000000E-01     0.000   1.
-13    1    7    0    0    0  -4.4489719609E+00   2.0440639604E+00   6.6104598296E+00   8.2268312941E+00   1.0500000000E-01     0.000  -1.
13    1    9    0    0    0   1.4720453320E+01  -6.0201731863E+00   9.4347442123E+00   1.8492151159E+01   1.0500000000E-01     0.000  -1.
-13    1    9    0    0    0   2.3304457166E+01  -9.3710047303E+00   1.4831923978E+01   2.9170369339E+01   1.0500000000E-01     0.000   1.
</event>
<event>
 13   1  9.2978750E-05  1.2500000E+02  7.5467720E-03  1.2380620E-01
   21   -1    0    0  502  501   0.0000000000E+00   0.0000000000E+00   1.1733365462E+02   1.1733365462E+02   0.0000000000E+00     0.000   1.
   21   -1    0    0  501  502   0.0000000000E+00   0.0000000000E+00  -3.3291812249E+01   3.3291812249E+01   0.0000000000E+00     0.000   1.
   25    2    1    2    0    0   0.0000000000E+00   0.0000000000E+00   8.4041842367E+01   1.5062546687E+02   1.2500000000E+02  3.309E-09  -1.
3000002    2    3    0    0    0   5.9623724043E+01  -1.2301259877E+01   2.9974467024E+01   6.8591385295E+01   1.0000000000E+01  1.197E-10  -1.
3000002    2    3    0    0    0  -5.9623724043E+01   1.2301259877E+01   5.4067375343E+01   8.2034081575E+01   1.0000000000E+01  4.924E-10  -1.
3000001    1    4    0    0    0   2.9250226860E+01  -2.0888099010E+00   1.7753988740E+01   3.4294941527E+01   1.0000000000E+00     0.000  -1.
3000022   2   4   0   0   0   3.0373497183E+01   -1.0212449976E+01   1.2220478284E+01   3.4296443768E+01   2.5000000000E-01   1.252694E+00   0.
3000001    1    5    0    0    0  -2.6010839076E+00   2.5309290431E+00   2.3788241536E+00   4.4530937189E+00   1.0000000000E+00     0.000   1.
3000022   2   5   0   0   0   -5.7022640136E+01   9.7703308341E+00   5.1688551189E+01   7.7580987856E+01   2.5000000000E-01   5.879961E+00   0.
13    1    7    0    0    0   7.4722648084E+00  -2.5312633584E+00   3.0259449215E+00   8.4504084649E+00   1.0500000000E-01     0.000   1.
-13    1    7    0    0    0   2.2901232375E+01  -7.6811866178E+00   9.1945333624E+00   2.5846035303E+01   1.0500000000E-01     0.000  -1.
13    1    9    0    0    0  -1.5844672859E+01   2.6962262706E+00   1.4405934625E+01   2.1583912332E+01   1.0500000000E-01     0.000   1.
-13    1    9    0    0    0  -4.1177967276E+01   7.0741045635E+00   3.7282616564E+01   5.5997075524E+01   1.0500000000E-01     0.000  -1.
</event>
<event>
 13   1  9.2978750E-05  1.2500000E+02  7.5467720E-03  1.2380620E-01
   21   -1    0    0  502  501   0.0000000000E+00   0.0000000000E+00   3.2066069144E+02   3.2066069144E+02   0.0000000000E+00     0.000  -1.
   21   -1    0    0  501  502   0.0000000000E+00   0.0000000000E+00  -1.2181879801E+01   1.2181879801E+01   0.0000000000E+00     0.000  -1.
   25    2    1    2    0    0   0.0000000000E+00   0.0000000000E+00   3.0847881164E+02   3.3284257124E+02   1.2500000000E+02  2.653E-08  -1.
3000002    2    3    0    0    0   5.5721959562E+01   2.4430983283E+01   1.2702725526E+02   1.4120103859E+02   1.0000000000E+01  1.185E-09  -1.
3000002    2    3    0    0    0  -5.5721959562E+01  -2.4430983283E+01   1.8145155638E+02   1.9164153265E+02   1.0000000000E+01  6.676E-10  -1.
3000001    1    4    0    0    0   1.9068070390E+01   3.3858129711E+00   3.9882743497E+01   4.4347359185E+01   1.0000000000E+00     0.000   1.
3000022   2   4   0   0   0   3.6653889171E+01   2.1045170311E+01   8.7144511761E+01   9.6853679408E+01   2.5000000000E-01   3.335283E+00   0.
3000001    1    5    0    0    0  -3.3125907015E+01  -1.8280177810E+01   1.2229636578E+02   1.2801910677E+02   1.0000000000E+00     0.000  -1.
3000022   2   5   0   0   0   -2.2596052547E+01   -6.1508054730E+00   5.9155190604E+01   6.3622425874E+01   2.5000000000E-01   5.599306E+00   0.
13    1    7    0    0    0   2.6608748419E+01   1.5235596868E+01   6.3240417135E+01   7.0281649730E+01   1.0500000000E-01     0.000   1.
-13    1    7    0    0    0   1.0045140752E+01   5.8095734438E+00   2.3904094626E+01   2.6572029678E+01   1.0500000000E-01     0.000  -1.
13    1    9    0    0    0  -9.0173992715E+00  -2.4759183281E+00   2.3460156302E+01   2.5255368140E+01   1.0500000000E-01     0.000   1.
-13    1    9    0    0    0  -1.3578653276E+01  -3.6748871449E+00   3.5695034302E+01   3.8367057734E+01   1.0500000000E-01     0.000  -1.
</event>
<event>
 13   1  9.2978750E-05  1.2500000E+02  7.5467720E-03  1.2380620E-01
   21   -1    0    0  502  501   0.0000000000E+00   0.0000000000E+00   1.1137026589E+02   1.1137026589E+02   0.0000000000E+00     0.000  -1.
   21   -1    0    0  501  502   0.0000000000E+00   0.0000000000E+00  -3.5074442616E+01   3.5074442616E+01   0.0000000000E+00     0.000  -1.
   25    2    1    2    0    0   0.0000000000E+00   0.0000000000E+00   7.6295823271E+01   1.4644470850E+02   1.2500000000E+02  1.805E-09  -1.
3000002    2    3    0    0    0  -3.9618722248E+01   8.3564019204E+00  -1.6386523474E+01   4.4810609873E+01   1.0000000000E+01  7.553E-10  -1.
3000002    2    3    0    0    0   3.9618722248E+01  -8.3564019204E+00   9.2682346745E+01   1.0163409863E+02   1.0000000000E+01  1.588E-09  -1.
3000001    1    4    0    0    0  -1.3302936686E+01   1.0407117261E+00  -9.0052380713E-01   1.3411269459E+01   1.0000000000E+00     0.000  -1.
3000022   2   4   0   0   0   -2.6315785562E+01   7.3156901943E+00   -1.5485999667E+01   3.1399340414E+01   2.5000000000E-01   2.889103E+00   0.
3000001    1    5    0    0    0   1.0842606044E+01  -5.6594700574E+00   3.5517504813E+01   3.7577717537E+01   1.0000000000E+00     0.000   1.
3000022   2   5   0   0   0   2.8776116204E+01   -2.6969318630E+00   5.7164841932E+01   6.4056381090E+01   2.5000000000E-01   1.998394E+01   0.
13    1    7    0    0    0  -7.8599917989E+00   2.1933263940E+00  -4.6783520404E+00   9.4068142622E+00   1.0500000000E-01     0.000   1.
-13    1    7    0    0    0  -1.8455793763E+01   5.1223638003E+00  -1.0807647626E+01   2.1992526152E+01   1.0500000000E-01     0.000  -1.
13    1    9    0    0    0   6.8901819077E+00  -6.4105849203E-01   1.3647304852E+01   1.5301814188E+01   1.0500000000E-01     0.000   1.
-13    1    9    0    0    0   2.1885934296E+01  -2.0558733709E+00   4.3517537080E+01   4.8754566903E+01   1.0500000000E-01     0.000  -1.
</event>
<event>
 13   1  9.2978750E-05  1.2500000E+02  7.5467720E-03  1.2380620E-01
   21   -1    0    0  502  501   0.0000000000E+00   0.0000000000E+00   2.2831038423E+02   2.2831038423E+02   0.0000000000E+00     0.000  -1.
   21   -1    0    0  501  502   0.0000000000E+00   0.0000000000E+00  -1.7109383847E+01   1.7109383847E+01   0.0000000000E+00     0.000  -1.
   25    2    1    2    0    0   0.0000000000E+00   0.0000000000E+00   2.1120100038E+02   2.4541976807E+02   1.2500000000E+02  5.288E-08  -1.
3000002    2    3    0    0    0   4.6713188463E+00   4.7896984126E+01   1.8139496658E+02   1.8793636213E+02   1.0000000000E+01  6.934E-10  -1.
3000002    2    3    0    0    0  -4.6713188463E+00  -4.7896984126E+01   2.9806033798E+01   5.7483405944E+01   1.0000000000E+01  7.714E-11  -1.
3000001    1    4    0    0    0  -6.8846234909E-01   3.4033676546E+00   2.4541936311E+01   2.4806521918E+01   1.0000000000E+00     0.000   1.
3000022   2   4   0   0   0   5.3597811954E+00   4.4493616471E+01   1.5685303027E+02   1.6312984021E+02   2.5000000000E-01   6.925621E-01   0.
3000001    1    5    0    0    0  -4.7966180041E+00  -1.8166991629E+01   1.6016887595E+01   2.4710075219E+01   1.0000000000E+00     0.000   1.
3000022   2   5   0   0   0   1.2529915783E-01   -2.9729992497E+01   1.3789146203E+01   3.2773330724E+01   2.5000000000E-01   1.301361E+00   0.
13    1    7    0    0    0   2.9688090037E+00   2.4184744262E+01   8.5419805331E+01   8.8827190936E+01   1.0500000000E-01     0.000   1.
-13    1    7    0    0    0   2.3909721917E+00   2.0308872209E+01   7.1433224939E+01   7.4302649271E+01   1.0500000000E-01     0.000  -1.
13    1    9    0    0    0   6.9701653128E-02  -1.3644665012E+01   6.2559626117E+00   1.5010990467E+01   1.0500000000E-01     0.000   1.
-13    1    9    0    0    0   5.5597504700E-02  -1.6085327485E+01   7.5331835918E+00   1.7762340258E+01   1.0500000000E-01     0.000  -1.
</event>
<event>
 13   1  9.2978750E-05  1.2500000E+02  7.5467720E-03  1.2380620E-01
   21   -1    0    0  502  501   0.0000000000E+00   0.0000000000E+00   2.7830182690E+01   2.7830182690E+01   0.0000000000E+00     0.000  -1.
   21   -1    0    0  501  502   0.0000000000E+00   0.0000000000E+00  -1.4036019970E+02   1.4036019970E+02   0.0000000000E+00     0.000  -1.
   25    2    1    2    0    0   0.0000000000E+00   0.0000000000E+00  -1.1253001701E+02   1.6819038239E+02   1.2500000000E+02  8.809E-08  -1.
3000002    2    3    0    0    0  -6.0120427684E+01  -5.3352222011E+00  -7.3460328851E+01   9.5599949455E+01   1.0000000000E+01  1.001E-09   1.
3000002    2    3    0    0    0   6.0120427684E+01   5.3352222011E+00  -3.9069688159E+01   7.2590432935E+01   1.0000000000E+01  3.545E-10   1.
3000001    1    4    0    0    0  -5.9513217569E+01  -5.8817419558E+00  -7.3479737153E+01   9.4745394220E+01   1.0000000000E+00     0.000   1.
3000022   2   4   0   0   0   -6.0721011552E-01   5.4651975468E-01   1.9408302500E-02   8.5455523452E-01   2.5000000000E-01   1.831303E+00   0.
3000001    1    5    0    0    0   2.6513428418E+01   5.6834819425E+00  -2.1780955773E+01   3.4794739370E+01   1.0000000000E+00     0.000   1.
3000022   2   5   0   0   0   3.3606999267E+01   -3.4825974135E-01   -1.7288732386E+01   3.7795693565E+01   2.5000000000E-01   2.566273E+00   0.
13    1    7    0    0    0  -3.0425523222E-01   2.7479501704E-01  -5.8098723787E-02   4.2718147131E-01   1.0500000000E-01     0.000  -1.
-13    1    7    0    0    0  -3.0295488330E-01   2.7172473764E-01   7.7507026287E-02   4.2737376321E-01   1.0500000000E-01     0.000   1.
13    1    9    0    0    0   1.7543966200E+01  -2.1097445437E-01  -8.9568484111E+00   1.9699528388E+01   1.0500000000E-01     0.000  -1.
-13    1    9    0    0    0   1.6063033067E+01  -1.3728528698E-01  -8.3318839753E+00   1.8096165178E+01   1.0500000000E-01     0.000   1.
</event>
<event>
 13   1  9.2978750E-05  1.2500000E+02  7.5467720E-03  1.2380620E-01
   21   -1    0    0  502  501   0.0000000000E+00   0.0000000000E+00   1.5933210853E+01   1.5933210853E+01   0.0000000000E+00     0.000  -1.
   21   -1    0    0  501  502   0.0000000000E+00   0.0000000000E+00  -2.4516401847E+02   2.4516401847E+02   0.0000000000E+00     0.000  -1.
   25    2    1    2    0    0   0.0000000000E+00   0.0000000000E+00  -2.2923080762E+02   2.6109722933E+02   1.2500000000E+02  1.491E-08  -1.
3000002    2    3    0    0    0   4.9697460582E+01   3.1054922576E+01  -7.4328288697E+01   9.5178465553E+01   1.0000000000E+01  1.509E-10   1.
3000002    2    3    0    0    0  -4.9697460582E+01  -3.1054922576E+01  -1.5490251892E+02   1.6591876378E+02   1.0000000000E+01  3.319E-10   1.
3000001    1    4    0    0    0   3.7212516655E+00   4.7902267882E+00  -1.1266918682E+01   1.2835008501E+01   1.0000000000E+00     0.000   1.
3000022   2   4   0   0   0   4.5976208916E+01   2.6264695788E+01   -6.3061370015E+01   8.2343457052E+01   2.5000000000E-01   3.491288E+00   1.
3000001    1    5    0    0    0  -2.7431630555E+01  -1.5477794616E+01  -9.6233214579E+01   1.0126148364E+02   1.0000000000E+00     0.000   1.
3000022   2   5   0   0   0   -2.2265830026E+01   -1.5577127960E+01   -5.8669304344E+01   6.4657280135E+01   2.5000000000E-01   3.399898E+00   0.
13    1    7    0    0    0   3.4679486830E+01   1.9814545678E+01  -4.7604727246E+01   6.2141001829E+01   1.0500000000E-01     0.000   1.
-13    1    7    0    0    0   1.1296722087E+01   6.4501501100E+00  -1.5456642769E+01   2.0202455223E+01   1.0500000000E-01     0.000   1.
13    1    9    0    0    0  -1.0850198653E+01  -7.6575633725E+00  -2.8767515107E+01   3.1685107512E+01   1.0500000000E-01     0.000  -1.
-13    1    9    0    0    0  -1.1415631374E+01  -7.9195645874E+00  -2.9901789238E+01   3.2972172624E+01   1.0500000000E-01     0.000   1.
</event>
<event>
 13   1  9.2978750E-05  1.2500000E+02  7.5467720E-03  1.2380620E-01
   21   -1    0    0  502  501   0.0000000000E+00   0.0000000000E+00   2.4210472906E+02   2.4210472906E+02   0.0000000000E+00     0.000  -1.
   21   -1    0    0  501  502   0.0000000000E+00   0.0000000000E+00  -1.6134546463E+01   1.6134546463E+01   0.0000000000E+00     0.000  -1.
   25    2    1    2    0    0   0.0000000000E+00   0.0000000000E+00   2.2597018260E+02   2.5823927552E+02   1.2500000000E+02  2.137E-08  -1.
3000002    2    3    0    0    0   3.6510763388E+01   2.6332860631E+01   2.5829104403E+01   5.2854498640E+01   1.0000000000E+01  8.616E-10   1.
3000002    2    3    0    0    0  -3.6510763388E+01  -2.6332860631E+01   2.0014107820E+02   2.0538477688E+02   1.0000000000E+01  2.846E-10   1.
3000001    1    4    0    0    0   1.0270931243E+01   2.6354385503E+00   4.5044696546E+00   1.1564074188E+01   1.0000000000E+00     0.000   1.
3000022   2   4   0   0   0   2.6239832145E+01   2.3697422081E+01   2.1324634748E+01   4.1290424452E+01   2.5000000000E-01   1.286958E+01   0.
3000001    1    5    0    0    0  -2.3600759386E+01  -1.4489775531E+01   1.0228513838E+02   1.0597263312E+02   1.0000000000E+00     0.000   1.
3000022   2   5   0   0   0   -1.2910004003E+01   -1.1843085100E+01   9.7855939821E+01   9.9412143756E+01   2.5000000000E-01   1.889618E-01   0.
13    1    7    0    0    0   1.3651511485E+01   1.2303593237E+01   1.1160036946E+01   2.1501153969E+01   1.0500000000E-01     0.000   1.
-13    1    7    0    0    0   1.2588320661E+01   1.1393828844E+01   1.0164597802E+01   1.9789270483E+01   1.0500000000E-01     0.000  -1.
13    1    9    0    0    0  -7.7503708393E+00  -7.1264689510E+00   5.8457025752E+01   5.9397724642E+01   1.0500000000E-01     0.000   1.
-13    1    9    0    0    0  -5.1596331633E+00  -4.7166161490E+00   3.9398914068E+01   4.0014419114E+01   1.0500000000E-01     0.000  -1.
</event>
<event>
 13   1  9.2978750E-05  1.2500000E+02  7.5467720E-03  1.2380620E-01
   21   -1    0    0  502  501   0.0000000000E+00   0.0000000000E+00   1.8841328390E+02   1.8841328390E+02   0.0000000000E+00     0.000  -1.
   21   -1    0    0  501  502   0.0000000000E+00   0.0000000000E+00  -2.0732349223E+01   2.0732349223E+01   0.0000000000E+00     0.000  -1.
   25    2    1    2    0    0   0.0000000000E+00   0.0000000000E+00   1.6768093468E+02   2.0914563312E+02   1.2500000000E+02  2.778E-08  -1.
3000002    2    3    0    0    0   3.6910901179E+00   6.1407073088E+01   7.6028877686E+01   9.8309933444E+01   1.0000000000E+01  1.050E-09   1.
3000002    2    3    0    0    0  -3.6910901179E+00  -6.1407073088E+01   9.1652056994E+01   1.1083569968E+02   1.0000000000E+01  1.071E-09   1.
3000001    1    4    0    0    0   6.8952439376E+00   4.6527251612E+01   5.9204401738E+01   7.5620702964E+01   1.0000000000E+00     0.000  -1.
3000022   2   4   0   0   0   -3.2041538197E+00   1.4879821476E+01   1.6824475948E+01   2.2689230480E+01   2.5000000000E-01   2.120264E+00   0.
3000001    1    5    0    0    0   1.3322009504E+00  -2.2851708574E+00   2.7007270070E+00   3.9103313908E+00   1.0000000000E+00     0.000  -1.
3000022   2   5   0   0   0   -5.0232910683E+00   -5.9121902231E+01   8.8951329987E+01   1.0692536829E+02   2.5000000000E-01   7.555974E+00   0.
13    1    7    0    0    0  -1.9090555339E+00   8.5563762438E+00   9.6863828748E+00   1.3064957162E+01   1.0500000000E-01     0.000   1.
-13    1    7    0    0    0  -1.2950982858E+00   6.3234452325E+00   7.1380930729E+00   9.6242733178E+00   1.0500000000E-01     0.000  -1.
13    1    9    0    0    0  -1.7274827287E+00  -2.0863235036E+01   3.1447068772E+01   3.7778140930E+01   1.0500000000E-01     0.000   1.
-13    1    9    0    0    0  -3.2958083396E+00  -3.8258667195E+01   5.7504261215E+01   6.9147227356E+01   1.0500000000E-01     0.000  -1.
</event>
<event>
 13   1  9.2978750E-05  1.2500000E+02  7.5467720E-03  1.2380620E-01
   21   -1    0    0  502  501   0.0000000000E+00   0.0000000000E+00   6.8732146710E+01   6.8732146710E+01   0.0000000000E+00     0.000   1.
   21   -1    0    0  501  502   0.0000000000E+00   0.0000000000E+00  -5.6832940436E+01   5.6832940436E+01   0.0000000000E+00     0.000   1.
   25    2    1    2    0    0   0.0000000000E+00   0.0000000000E+00   1.1899206274E+01   1.2556508715E+02   1.2500000000E+02  3.085E-09  -1.
3000002    2    3    0    0    0   5.0790813830E+01  -7.4324722412E+00  -2.8429398073E+01   5.9524609095E+01   1.0000000000E+01  2.924E-10   1.
3000002    2    3    0    0    0  -5.0790813830E+01   7.4324722412E+00   4.0328604347E+01   6.6040478055E+01   1.0000000000E+01  8.406E-10   1.
3000001    1    4    0    0    0   4.0901953267E+01  -1.8992227138E+00  -2.2572770661E+01   4.6766513696E+01   1.0000000000E+00     0.000   1.
3000022   2   4   0   0   0   9.8888605631E+00   -5.5332495275E+00   -5.8566274123E+00   1.2758095399E+01   2.5000000000E-01   2.699665E+00   0.
3000001    1    5    0    0    0  -3.0091205943E+01   5.9136108964E+00   1.8084169275E+01   3.5615848261E+01   1.0000000000E+00     0.000  -1.
3000022   2   5   0   0   0   -2.0699607887E+01   1.5188613448E+00   2.2244435072E+01   3.0424629794E+01   2.5000000000E-01   1.423531E+00   0.
13    1    7    0    0    0   5.2182787755E+00  -2.8457637054E+00  -3.0937274156E+00   6.7015653968E+00   1.0500000000E-01     0.000  -1.
-13    1    7    0    0    0   4.6705817876E+00  -2.6874858221E+00  -2.7628999967E+00   6.0565300024E+00   1.0500000000E-01     0.000   1.
13    1    9    0    0    0  -1.5132493479E+01   1.0852558542E+00   1.6296188595E+01   2.2265375067E+01   1.0500000000E-01     0.000   1.
-13    1    9    0    0    0  -5.5671144085E+00   4.3360549064E-01   5.9482464769E+00   8.1592547275E+00   1.0500000000E-01     0.000  -1.
</event>
<event>
 13   1  9.2978750E-05  1.2500000E+02  7.5467720E-03  1.2380620E-01
   21   -1    0    0  502  501   0.0000000000E+00   0.0000000000E+00   1.1187413916E+01   1.1187413916E+01   0.0000000000E+00     0.000  -1.
   21   -1    0    0  501  502   0.0000000000E+00   0.0000000000E+00  -3.4916469789E+02   3.4916469789E+02   0.0000000000E+00     0.000  -1.
   25    2    1    2    0    0   0.0000000000E+00   0.0000000000E+00  -3.3797728397E+02   3.6035211180E+02   1.2500000000E+02  5.004E-09  -1.
3000002    2    3    0    0    0  -8.0357540084E+00   1.9080083884E+01  -3.3653033742E+02   3.3731482468E+02   1.0000000000E+01  1.015E-09  -1.
3000002    2    3    0    0    0   8.0357540084E+00  -1.9080083884E+01  -1.4469465468E+00   2.3037287119E+01   1.0000000000E+01  3.634E-10  -1.
3000001    1    4    0    0    0   1.3845131201E+00   7.9030149247E+00  -1.4650394625E+02   1.4672689184E+02   1.0000000000E+00     0.000   1.
3000022   2   4   0   0   0   -9.4202671285E+00   1.1177068959E+01   -1.9002639117E+02   1.9058793284E+02   2.5000000000E-01   1.978804E+01   0.
3000001    1    5    0    0    0  -1.5101759456E+00  -7.8435059591E+00   9.2034376643E-01   8.1023607526E+00   1.0000000000E+00     0.000  -1.
3000022   2   5   0   0   0   9.5459299539E+00   -1.1236577924E+01   -2.3672903132E+00   1.4934926366E+01   2.5000000000E-01   1.681510E+00   0.
13    1    7    0    0    0  -5.2277331275E+00   6.2302372864E+00  -1.0655849991E+02   1.0686847046E+02   1.0500000000E-01     0.000   1.
-13    1    7    0    0    0  -4.1925340010E+00   4.9468316725E+00  -8.3467891257E+01   8.3719462378E+01   1.0500000000E-01     0.000  -1.
13    1    9    0    0    0   3.9332033564E+00  -4.6293178140E+00  -1.0403722059E+00   6.1639331107E+00   1.0500000000E-01     0.000   1.
-13    1    9    0    0    0   5.6127265975E+00  -6.6072601104E+00  -1.3269181073E+00   8.7709932555E+00   1.0500000000E-01     0.000  -1.
</event>
<event>
 13   1  9.2978750E-05  1.2500000E+02  7.5467720E-03  1.2380620E-01
   21   -1    0    0  502  501   0.0000000000E+00   0.0000000000E+00   3.3034880014E+01   3.3034880014E+01   0.0000000000E+00     0.000   1.
   21   -1    0    0  501  502   0.0000000000E+00   0.0000000000E+00  -1.1824622939E+02   1.1824622939E+02   0.0000000000E+00     0.000   1.
   25    2    1    2    0    0   0.0000000000E+00   0.0000000000E+00  -8.5211349375E+01   1.5128110940E+02   1.2500000000E+02  7.403E-08  -1.
3000002    2    3    0    0    0  -4.7582481914E+00   5.7655444276E+01  -1.6664001501E+01   6.1028518961E+01   1.0000000000E+01  1.298E-09  -1.
3000002    2    3    0    0    0   4.7582481914E+00  -5.7655444276E+01  -6.8547347874E+01   9.0252590439E+01   1.0000000000E+01  2.106E-10  -1.
3000001    1    4    0    0    0   2.6964223382E+00   2.4500660125E+01  -5.6832887098E+00   2.5315070818E+01   1.0000000000E+00     0.000  -1.
3000022   2   4   0   0   0   -7.4546705296E+00   3.3154784151E+01   -1.0980712792E+01   3.5713448142E+01   2.5000000000E-01   3.047866E-01   0.
3000001    1    5    0    0    0   4.1723234783E+00  -3.3550882539E+01  -4.7063233710E+01   5.7957035549E+01   1.0000000000E+00     0.000   1.
3000022   2   5   0   0   0   5.8592471311E-01   -2.4104561737E+01   -2.1484114164E+01   3.2295554891E+01   2.5000000000E-01   2.417590E+00   0.
13    1    7    0    0    0  -4.8394085524E+00   2.1507655428E+01  -7.1829003685E+00   2.3186293361E+01   1.0500000000E-01     0.000  -1.
-13    1    7    0    0    0  -2.6152619772E+00   1.1647128723E+01  -3.7978124231E+00   1.2527154781E+01   1.0500000000E-01     0.000   1.
13    1    9    0    0    0   2.3087119487E-01  -1.1844913701E+01  -1.0506944715E+01   1.5835472659E+01   1.0500000000E-01     0.000  -1.
-13    1    9    0    0    0   3.5505351823E-01  -1.2259648036E+01  -1.0977169449E+01   1.6460082232E+01   1.0500000000E-01     0.000   1.
</event>
<event>
 13   1  9.2978750E-05  1.2500000E+02  7.5467720E-03  1.2380620E-01
   21   -1    0    0  502  501   0.0000000000E+00   0.0000000000E+00   6.7160416954E+01   6.7160416954E+01   0.0000000000E+00     0.000   1.
   21   -1    0    0  501  502   0.0000000000E+00   0.0000000000E+00  -5.8162980177E+01   5.8162980177E+01   0.0000000000E+00     0.000   1.
   25    2    1    2    0    0   0.0000000000E+00   0.0000000000E+00   8.9974367765E+00   1.2532339713E+02   1.2500000000E+02  3.594E-08  -1.
3000002    2    3    0    0    0   1.0595968541E+01  -1.8268262055E+01  -5.3618883479E+01   5.8489217924E+01   1.0000000000E+01  3.853E-11  -1.
3000002    2    3    0    0    0  -1.0595968541E+01   1.8268262055E+01   6.2616320255E+01   6.6834179206E+01   1.0000000000E+01  9.418E-10  -1.
3000001    1    4    0    0    0   1.1770890083E+01  -1.8532892311E+01  -5.2018482824E+01   5.6470740265E+01   1.0000000000E+00     0.000  -1.
3000022   2   4   0   0   0   -1.1749215424E+00   2.6463025612E-01   -1.6004006548E+00   2.0184776588E+00   2.5000000000E-01   3.619380E+00   0.
3000001    1    5    0    0    0  -2.2709135243E+00  -7.4644392121E-01   6.1882260672E+00   6.7088276637E+00   1.0000000000E+00     0.000   1.
3000022   2   5   0   0   0   -8.3250550167E+00   1.9014705976E+01   5.6428094188E+01   6.0125351542E+01   2.5000000000E-01   1.262421E-01   0.
13    1    7    0    0    0  -4.9837128076E-01   1.4504485903E-01  -7.8708263983E-01   9.4864958048E-01   1.0500000000E-01     0.000  -1.
-13    1    7    0    0    0  -6.7655026165E-01   1.1958539709E-01  -8.1331801494E-01   1.0698280783E+00   1.0500000000E-01     0.000   1.
13    1    9    0    0    0  -3.7377030944E+00   8.6707398462E+00   2.5783617885E+01   2.7458298020E+01   1.0500000000E-01     0.000   1.
-13    1    9    0    0    0  -4.5873519224E+00   1.0343966130E+01   3.0644476303E+01   3.2667053522E+01   1.0500000000E-01     0.000  -1.
</event>
<event>
 13   1  9.2978750E-05  1.2500000E+02  7.5467720E-03  1.2380620E-01
   21   -1    0    0  502  501   0.0000000000E+00   0.0000000000E+00   4.1457906223E+02   4.1457906223E+02   0.0000000000E+00     0.000   1.
   21   -1    0    0  501  502   0.0000000000E+00   0.0000000000E+00  -9.4222076218E+00   9.4222076218E+00   0.0000000000E+00     0.000   1.
   25    2    1    2    0    0   0.0000000000E+00   0.0000000000E+00   4.0515685461E+02   4.2400126985E+02   1.2500000000E+02  1.300E-09  -1.
3000002    2    3    0    0    0  -5.1359923315E+01  -4.7277798071E-01   3.1851298565E+02   3.2278256965E+02   1.0000000000E+01  1.245E-11  -1.
3000002    2    3    0    0    0   5.1359923315E+01   4.7277798071E-01   8.6643868960E+01   1.0121870020E+02   1.0000000000E+01  3.111E-10  -1.
3000001    1    4    0    0    0  -3.6643252534E+01  -2.0854865021E+00   1.9932850001E+02   2.0268183965E+02   1.0000000000E+00     0.000  -1.
3000022   2   4   0   0   0   -1.4716670781E+01   1.6127085214E+00   1.1918448564E+02   1.2010073000E+02   2.5000000000E-01   8.148725E+00   0.
3000001    1    5    0    0    0   3.8240941004E+01   4.6943121114E+00   6.3446638835E+01   7.4235315818E+01   1.0000000000E+00     0.000  -1.
3000022   2   5   0   0   0   1.3118982311E+01   -4.2215341306E+00   2.3197230125E+01   2.6983384383E+01   2.5000000000E-01   3.144913E-01   0.
13    1    7    0    0    0  -8.5977549698E+00   9.0358727697E-01   6.9172551397E+01   6.9710764967E+01   1.0500000000E-01     0.000  -1.
-13    1    7    0    0    0  -6.1189158108E+00   7.0912124443E-01   5.0011934246E+01   5.0389965029E+01   1.0500000000E-01     0.000   1.
13    1    9    0    0    0   4.8837827757E+00  -1.5247663839E+00   8.5346179064E+00   9.9512298001E+00   1.0500000000E-01     0.000  -1.
-13    1    9    0    0    0   8.2351995354E+00  -2.6967677468E+00   1.4662612218E+01   1.7032154583E+01   1.0500000000E-01     0.000   1.
</event>
<event>
 13   1  9.2978750E-05  1.2500000E+02  7.5467720E-03  1.2380620E-01
   21   -1    0    0  502  501   0.0000000000E+00   0.0000000000E+00   3.4486936624E+01   3.4486936624E+01   0.0000000000E+00     0.000  -1.
   21   -1    0    0  501  502   0.0000000000E+00   0.0000000000E+00  -1.1326752627E+02   1.1326752627E+02   0.0000000000E+00     0.000  -1.
   25    2    1    2    0    0   0.0000000000E+00   0.0000000000E+00  -7.8780589644E+01   1.4775446289E+02   1.2500000000E+02  5.125E-08  -1.
3000002    2    3    0    0    0   5.9966651173E+01   1.0115715876E+01  -2.7110597052E+01   6.7329870289E+01   1.0000000000E+01  9.363E-10   1.
3000002    2    3    0    0    0  -5.9966651173E+01  -1.0115715876E+01  -5.1669992592E+01   8.0424592601E+01   1.0000000000E+01  5.634E-10   1.
3000001    1    4    0    0    0   1.3974448057E+01  -7.7427539090E-01  -3.3358901663E+00   1.4422651077E+01   1.0000000000E+00     0.000  -1.
3000022   2   4   0   0   0   4.5992203116E+01   1.0889991266E+01   -2.3774706886E+01   5.2907219212E+01   2.5000000000E-01   1.121811E+01   0.
3000001    1    5    0    0    0  -1.4039442589E+01  -6.3029172381E+00  -1.5207949761E+01   2.1659050068E+01   1.0000000000E+00     0.000  -1.
3000022   2   5   0   0   0   -4.5927208585E+01   -3.8127986375E+00   -3.6462042831E+01   5.8765542533E+01   2.5000000000E-01   1.661384E+00   0.
13    1    7    0    0    0   1.4822788861E+01   3.5118557523E+00  -7.6053750121E+00   1.7026478042E+01   1.0500000000E-01     0.000   1.
-13    1    7    0    0    0   3.1169414256E+01   7.3781355141E+00  -1.6169331874E+01   3.5880741171E+01   1.0500000000E-01     0.000  -1.
13    1    9    0    0    0  -1.7625948550E+01  -1.5131519016E+00  -1.4042533232E+01   2.2586886805E+01   1.0500000000E-01     0.000   1.
-13    1    9    0    0    0  -2.8301260035E+01  -2.2996467359E+00  -2.2419509598E+01   3.6178655728E+01   1.0500000000E-01     0.000  -1.
</event>
<event>
 13   1  9.2978750E-05  1.2500000E+02  7.5467720E-03  1.2380620E-01
   21   -1    0    0  502  501   0.0000000000E+00   0.0000000000E+00   8.1494051022E+00   8.1494051022E+00   0.0000000000E+00     0.000  -1.
   21   -1    0    0  501  502   0.0000000000E+00   0.0000000000E+00  -4.7932946651E+02   4.7932946651E+02   0.0000000000E+00     0.000  -1.
   25    2    1    2    0    0   0.0000000000E+00   0.0000000000E+00  -4.7118006141E+02   4.8747887161E+02   1.2500000000E+02  2.880E-07  -1.
3000002    2    3    0    0    0   1.0206259500E+01   2.9435002631E+01  -4.4325970596E+02   4.4446569501E+02   1.0000000000E+01  5.899E-11   1.
3000002    2    3    0    0    0  -1.0206259500E+01  -2.9435002631E+01  -2.7920355454E+01   4.3013176604E+01   1.0000000000E+01  1.178E-10   1.
3000001    1    4    0    0    0   8.2659009432E+00   9.5356631808E+00  -1.8572397615E+02   1.8615490675E+02   1.0000000000E+00     0.000  -1.
3000022   2   4   0   0   0   1.9403585568E+00   1.9899339451E+01   -2.5753572981E+02   2.5831078825E+02   2.5000000000E-01   2.104045E+00   0.
3000001    1    5    0    0    0  -5.5922461340E-02  -3.2257753324E+00   2.5116093121E-02   3.3777780618E+00   1.0000000000E+00     0.000  -1.
3000022   2   5   0   0   0   -1.0150337039E+01   -2.6209227299E+01   -2.7945471547E+01   3.9635398542E+01   2.5000000000E-01   8.132605E-01   0.
13    1    7    0    0    0   1.4950500305E+00   1.5341940165E+01  -1.9858447252E+02   1.9918186176E+02   1.0500000000E-01     0.000  -1.
-13    1    7    0    0    0   4.4530852634E-01   4.5573992852E+00  -5.8951257289E+01   5.9128926499E+01   1.0500000000E-01     0.000   1.
13    1    9    0    0    0  -5.6421607407E+00  -1.4587408033E+01  -1.5644080986E+01   2.2121816061E+01   1.0500000000E-01     0.000   1.
-13    1    9    0    0    0  -4.5081762980E+00  -1.1621819267E+01  -1.2301390561E+01   1.7513582482E+01   1.0500000000E-01     0.000  -1.
</event>
<event>
 13   1  9.2978750E-05  1.2500000E+02  7.5467720E-03  1.2380620E-01
   21   -1    0    0  502  501   0.0000000000E+00   0.0000000000E+00   2.3361892772E+02   2.3361892772E+02   0.0000000000E+00     0.000   1.
   21   -1    0    0  501  502   0.0000000000E+00   0.0000000000E+00  -1.6720605810E+01   1.6720605810E+01   0.0000000000E+00     0.000   1.
   25    2    1    2    0    0   0.0000000000E+00   0.0000000000E+00   2.1689832191E+02   2.5033953353E+02   1.2500000000E+02  2.016E-08  -1.
3000002    2    3    0    0    0   5.6742474439E+01  -1.9070326674E+01   1.3834698732E+02   1.5107373917E+02   1.0000000000E+01  3.605E-10   1.
3000002    2    3    0    0    0  -5.6742474439E+01   1.9070326674E+01   7.8551334586E+01   9.9265794361E+01   1.0000000000E+01  5.487E-11   1.
3000001    1    4    0    0    0   1.6183429557E+01  -8.5976991752E+00   3.4099389365E+01   3.8724568150E+01   1.0000000000E+00     0.000  -1.
3000022   2   4   0   0   0   4.0559044881E+01   -1.0472627499E+01   1.0424759796E+02   1.1234917102E+02   2.5000000000E-01   9.115572E+00   0.
3000001    1    5    0    0    0  -1.5352640016E+01   3.7252823091E+00   1.4438227771E+01   2.1425305247E+01   1.0000000000E+00     0.000  -1.
3000022   2   5   0   0   0   -4.1389834423E+01   1.5345044365E+01   6.4113106815E+01   7.7840489114E+01   2.5000000000E-01   2.273821E+00   0.
13    1    7    0    0    0   2.4694008457E+01  -6.3322237278E+00   6.3563990396E+01   6.8485640911E+01   1.0500000000E-01     0.000  -1.
-13    1    7    0    0    0   1.5865036425E+01  -4.1404037710E+00   4.0683607564E+01   4.3863530108E+01   1.0500000000E-01     0.000   1.
13    1    9    0    0    0  -2.7647375230E+01   1.0201086599E+01   4.2753146980E+01   5.1925736649E+01   1.0500000000E-01     0.000  -1.
-13    1    9    0    0    0  -1.3742459193E+01   5.1439577662E+00   2.1359959835E+01   2.5914752465E+01   1.0500000000E-01     0.000   1.
</event>
<event>
 13   1  9.2978750E-05  1.2500000E+02  7.5467720E-03  1.2380620E-01
   21   -1    0    0  502  501   0.0000000000E+00   0.0000000000E+00   1.0351149078E+02   1.0351149078E+02   0.0000000000E+00     0.000   1.
   21   -1    0    0  501  502   0.0000000000E+00   0.0000000000E+00  -3.7737356214E+01   3.7737356214E+01   0.0000000000E+00     0.000   1.
   25    2    1    2    0    0   0.0000000000E+00   0.0000000000E+00   6.5774134569E+01   1.4124884700E+02   1.2500000000E+02  8.108E-08  -1.
3000002    2    3    0    0    0  -4.6783229337E+01  -1.8687197323E+01  -7.3566005141E+00   5.1884501175E+01   1.0000000000E+01  4.190E-10   1.
3000002    2    3    0    0    0   4.6783229337E+01   1.8687197323E+01   7.3130735083E+01   8.9364345825E+01   1.0000000000E+01  9.742E-10   1.
3000001    1    4    0    0    0  -1.7779317251E+01  -2.2694014048E+00  -3.9571217204E+00   1.8382413251E+01   1.0000000000E+00     0.000   1.
3000022   2   4   0   0   0   -2.9003912087E+01   -1.6417795919E+01   -3.3994787937E+00   3.3502087923E+01   2.5000000000E-01   6.721659E+00   0.
3000001    1    5    0    0    0   4.0708563257E+01   1.4863913664E+01   5.6219538326E+01   7.0991263839E+01   1.0000000000E+00     0.000   1.
3000022   2   5   0   0   0   6.0746660800E+00   3.8232836591E+00   1.6911196757E+01   1.8373081986E+01   2.5000000000E-01   1.525662E+00   0.
13    1    7    0    0    0  -7.6628980937E+00  -4.3725944109E+00  -9.1465357387E-01   8.8705808850E+00   1.0500000000E-01     0.000   1.
-13    1    7    0    0    0  -2.1341013993E+01  -1.2045201508E+01  -2.4848252198E+00   2.4631507038E+01   1.0500000000E-01     0.000  -1.
13    1    9    0    0    0   2.7056574301E+00   1.6696102161E+00   7.6452150111E+00   8.2806109659E+00   1.0500000000E-01     0.000  -1.
-13    1    9    0    0    0   3.3690086498E+00   2.1536734429E+00   9.2659817458E+00   1.0092471020E+01   1.0500000000E-01     0.000   1.
</event>
<event>
 13   1  9.2978750E-05  1.2500000E+02  7.5467720E-03  1.2380620E-01
   21   -1    0    0  502  501   0.0000000000E+00   0.0000000000E+00   1.6651289669E+02   1.6651289669E+02   0.0000000000E+00     0.000   1.
   21   -1    0    0  501  502   0.0000000000E+00   0.0000000000E+00  -2.3459143872E+01   2.3459143872E+01   0.0000000000E+00     0.000   1.
   25    2    1    2    0    0   0.0000000000E+00   0.0000000000E+00   1.4305375282E+02   1.8997204057E+02   1.2500000000E+02  3.625E-09  -1.
3000002    2    3    0    0    0   8.7667431191E+00   5.5982741111E+01   1.0860838830E+02   1.2290933689E+02   1.0000000000E+01  4.473E-10   1.
3000002    2    3    0    0    0  -8.7667431191E+00  -5.5982741111E+01   3.4445364524E+01   6.7062703677E+01   1.0000000000E+01  9.691E-13   1.
3000001    1    4    0    0    0   3.0823323144E+00   2.1684827344E+01   5.2612672575E+01   5.6998472127E+01   1.0000000000E+00     0.000   1.
3000022   2   4   0   0   0   5.6844108047E+00   3.4297913768E+01   5.5995715721E+01   6.5910864766E+01   2.5000000000E-01   4.039113E-01   0.
3000001    1    5    0    0    0  -2.1588436138E+00  -1.4318006020E+01   1.4066345506E+01   2.0212075055E+01   1.0000000000E+00     0.000   1.
3000022   2   5   0   0   0   -6.6078995054E+00   -4.1664735092E+01   2.0379019018E+01   4.6850628622E+01   2.5000000000E-01   6.213013E+00   0.
13    1    7    0    0    0   3.2826948163E+00   1.9419430657E+01   3.1754974197E+01   3.7366827314E+01   1.0500000000E-01     0.000  -1.
-13    1    7    0    0    0   2.4017159884E+00   1.4878483110E+01   2.4240741525E+01   2.8544037451E+01   1.0500000000E-01     0.000   1.
13    1    9    0    0    0  -1.9512220802E+00  -1.2080763189E+01   5.8837879226E+00   1.3578736765E+01   1.0500000000E-01     0.000  -1.
-13    1    9    0    0    0  -4.6566774252E+00  -2.9583971903E+01   1.4495231095E+01   3.3271891856E+01   1.0500000000E-01     0.000   1.
</event>
<event>
 13   1  9.2978750E-05  1.2500000E+02  7.5467720E-03  1.2380620E-01
   21   -1    0    0  502  501   0.0000000000E+00   0.0000000000E+00   1.1510862347E+01   1.1510862347E+01   0.0000000000E+00     0.000   1.
   21   -1    0    0  501  502   0.0000000000E+00   0.0000000000E+00  -3.3935337617E+02   3.3935337617E+02   0.0000000000E+00     0.000   1.
   25    2    1    2    0    0   0.0000000000E+00   0.0000000000E+00  -3.2784251383E+02   3.5086423852E+02   1.2500000000E+02  3.100E-08  -1.
3000002    2    3    0    0    0  -2.9919804782E+01   5.2367990856E+01  -1.2746930913E+02   1.4137194190E+02   1.0000000000E+01  1.257E-10   1.
3000002    2    3    0    0    0   2.9919804782E+01  -5.2367990856E+01  -2.0037320470E+02   2.0949229662E+02   1.0000000000E+01  3.341E-09   1.
3000001    1    4    0    0    0  -2.3798626378E+01   4.6058506213E+01  -1.1459473254E+02   1.2578041714E+02   1.0000000000E+00     0.000  -1.
3000022   2   4   0   0   0   -6.1211784039E+00   6.3094846432E+00   -1.2874576598E+01   1.5591524752E+01   2.5000000000E-01   5.965316E-02   0.
3000001    1    5    0    0    0   2.9575070338E+01  -5.2729666927E+01  -1.9944176358E+02   2.0840614103E+02   1.0000000000E+00     0.000   1.
3000022   2   5   0   0   0   3.4473444399E-01   3.6167607143E-01   -9.3144111608E-01   1.0861555921E+00   2.5000000000E-01   1.282847E+00   -1.
13    1    7    0    0    0  -4.6125697986E+00   4.7171144609E+00  -9.6636522730E+00   1.1701460133E+01   1.0500000000E-01     0.000   1.
-13    1    7    0    0    0  -1.5086086053E+00   1.5923701824E+00  -3.2109243249E+00   3.8900646193E+00   1.0500000000E-01     0.000  -1.
13    1    9    0    0    0   5.8774350313E-02   1.1501327666E-01  -2.6212572540E-01   3.1051147158E-01   1.0500000000E-01     0.000  -1.
-13    1    9    0    0    0   2.8596009368E-01   2.4666279477E-01  -6.6931539067E-01   7.7564412052E-01   1.0500000000E-01     0.000  -1.
</event>
<event>
 13   1  9.2978750E-05  1.2500000E+02  7.5467720E-03  1.2380620E-01
   21   -1    0    0  502  501   0.0000000000E+00   0.0000000000E+00   1.2044863746E+03   1.2044863746E+03   0.0000000000E+00     0.000   1.
   21   -1    0    0  501  502   0.0000000000E+00   0.0000000000E+00  -3.2430835933E+00   3.2430835933E+00   0.0000000000E+00     0.000   1.
   25    2    1    2    0    0   0.0000000000E+00   0.0000000000E+00   1.2012432910E+03   1.2077294582E+03   1.2500000000E+02  4.148E-08  -1.
3000002    2    3    0    0    0   4.1302441604E+01  -4.4364073397E+01   4.8953687044E+02   4.9337653999E+02   1.0000000000E+01  3.585E-11   1.
3000002    2    3    0    0    0  -4.1302441604E+01   4.4364073397E+01   7.1170642056E+02   7.1435291821E+02   1.0000000000E+01  1.026E-09   1.
3000001    1    4    0    0    0   2.0416188248E+01  -1.6131330965E+01   1.8570903203E+02   1.8752569200E+02   1.0000000000E+00     0.000   1.
3000022   2   4   0   0   0   2.0886253356E+01   -2.8232742433E+01   3.0382783840E+02   3.0585084798E+02   2.5000000000E-01   6.173843E+00   0.
3000001    1    5    0    0    0  -9.6437956154E+00   1.0811904802E+01   1.2643759190E+02   1.2726886786E+02   1.0000000000E+00     0.000  -1.
3000022   2   5   0   0   0   -3.1658645989E+01   3.3552168596E+01   5.8526882866E+02   5.8708405036E+02   2.5000000000E-01   6.313488E+00   0.
13    1    7    0    0    0   7.6145061083E+00  -1.0320004107E+01   1.1046488392E+02   1.1120694579E+02   1.0500000000E-01     0.000   1.
-13    1    7    0    0    0   1.3271747248E+01  -1.7912738326E+01   1.9336295448E+02   1.9464390219E+02   1.0500000000E-01     0.000  -1.
13    1    9    0    0    0  -1.9156816874E+01   2.0335700994E+01   3.5519357721E+02   3.5629062952E+02   1.0500000000E-01     0.000  -1.
-13    1    9    0    0    0  -1.2501829115E+01   1.3216467602E+01   2.3007525145E+02   2.3079342083E+02   1.0500000000E-01     0.000   1.
</event>
<event>
 13   1  9.2978750E-05  1.2500000E+02  7.5467720E-03  1.2380620E-01
   21   -1    0    0  502  501   0.0000000000E+00   0.0000000000E+00   9.4255949365E+00   9.4255949365E+00   0.0000000000E+00     0.000  -1.
   21   -1    0    0  501  502   0.0000000000E+00   0.0000000000E+00  -4.1443007326E+02   4.1443007326E+02   0.0000000000E+00     0.000  -1.
   25    2    1    2    0    0   0.0000000000E+00   0.0000000000E+00  -4.0500447832E+02   4.2385566819E+02   1.2500000000E+02  7.505E-10  -1.
3000002    2    3    0    0    0   2.3454705192E+01  -9.9561085234E+00  -3.9302438288E+02   3.9397641152E+02   1.0000000000E+01  7.431E-10  -1.
3000002    2    3    0    0    0  -2.3454705192E+01   9.9561085234E+00  -1.1980095438E+01   2.9879256673E+01   1.0000000000E+01  5.389E-11  -1.
3000001    1    4    0    0    0   2.2239157664E+01  -7.0338843097E+00  -3.0387805037E+02   3.0477356375E+02   1.0000000000E+00     0.000  -1.
3000022   2   4   0   0   0   1.2155475285E+00   -2.9222242137E+00   -8.9146332512E+01   8.9202847772E+01   2.5000000000E-01   1.097601E+00   0.
3000001    1    5    0    0    0  -1.3201653716E+01   6.3240553484E+00  -1.2069456749E+01   1.8998661087E+01   1.0000000000E+00     0.000   1.
3000022   2   5   0   0   0   -1.0253051477E+01   3.6320531750E+00   8.9361310929E-02   1.0880595586E+01   2.5000000000E-01   1.351743E+00   0.
13    1    7    0    0    0   7.3779656921E-01  -1.6653197587E+00  -5.2657844775E+01   5.2689441779E+01   1.0500000000E-01     0.000   1.
-13    1    7    0    0    0   4.7775095932E-01  -1.2569044550E+00  -3.6488487737E+01   3.6513405992E+01   1.0500000000E-01     0.000  -1.
13    1    9    0    0    0  -4.1464183785E+00   1.5317762243E+00   5.9377560639E-02   4.4219536933E+00   1.0500000000E-01     0.000   1.
-13    1    9    0    0    0  -6.1066330984E+00   2.1002769507E+00   2.9983750290E-02   6.4586418924E+00   1.0500000000E-01     0.000  -1.
</event>
<event>
 13   1  9.2978750E-05  1.2500000E+02  7.5467720E-03  1.2380620E-01
   21   -1    0    0  502  501   0.0000000000E+00   0.0000000000E+00   1.7308779234E+02   1.7308779234E+02   0.0000000000E+00     0.000  -1.
   21   -1    0    0  501  502   0.0000000000E+00   0.0000000000E+00  -2.2568027168E+01   2.2568027168E+01   0.0000000000E+00     0.000  -1.
   25    2    1    2    0    0   0.0000000000E+00   0.0000000000E+00   1.5051976517E+02   1.9565581951E+02   1.2500000000E+02  3.912E-08  -1.
3000002    2    3    0    0    0  -1.4885347989E+01  -2.7355848768E+01   1.5862059909E+02   1.6195805168E+02   1.0000000000E+01  6.637E-10   1.
3000002    2    3    0    0    0   1.4885347989E+01   2.7355848768E+01  -8.1008339239E+00   3.3697767832E+01   1.0000000000E+01  4.335E-10   1.
3000001    1    4    0    0    0  -1.3510132855E+00  -4.1457688937E+00   4.4161349318E+01   4.4387356423E+01   1.0000000000E+00     0.000   1.
3000022   2   4   0   0   0   -1.3534334704E+01   -2.3210079874E+01   1.1445924978E+02   1.1757069526E+02   2.5000000000E-01   4.344013E+00   0.
3000001    1    5    0    0    0   1.3870590446E+01   1.5613573853E+01  -4.7392217194E+00   2.1439150876E+01   1.0000000000E+00     0.000   1.
3000022   2   5   0   0   0   1.0147575432E+00   1.1742274915E+01   -3.3616122045E+00   1.2258616955E+01   2.5000000000E-01   1.729376E+01   0.
13    1    7    0    0    0  -9.6171259605E+00  -1.6441086185E+01   8.0988758687E+01   8.3198488480E+01   1.0500000000E-01     0.000   1.
-13    1    7    0    0    0  -3.9172087435E+00  -6.7689936886E+00   3.3470491089E+01   3.4372206775E+01   1.0500000000E-01     0.000  -1.
13    1    9    0    0    0   5.7676996080E-01   6.3147264387E+00  -1.7465252601E+00   6.5779791021E+00   1.0500000000E-01     0.000   1.
-13    1    9    0    0    0   4.3798758241E-01   5.4275484759E+00  -1.6150869444E+00   5.6806378531E+00   1.0500000000E-01     0.000  -1.
</event>
<event>
 13   1  9.2978750E-05  1.2500000E+02  7.5467720E-03  1.2380620E-01
   21   -1    0    0  502  501   0.0000000000E+00   0.0000000000E+00   4.6976354461E+00   4.6976354461E+00   0.0000000000E+00     0.000   1.
   21   -1    0    0  501  502   0.0000000000E+00   0.0000000000E+00  -8.3153536387E+02   8.3153536387E+02   0.0000000000E+00     0.000   1.
   25    2    1    2    0    0   0.0000000000E+00   0.0000000000E+00  -8.2683772843E+02   8.3623299932E+02   1.2500000000E+02  6.899E-08  -1.
3000002    2    3    0    0    0   1.1064721077E+00   3.6280272811E+01  -7.4715978062E+02   7.4810775978E+02   1.0000000000E+01  2.548E-10   1.
3000002    2    3    0    0    0  -1.1064721077E+00  -3.6280272811E+01  -7.9677947812E+01   8.8125239536E+01   1.0000000000E+01  1.878E-12   1.
3000001    1    4    0    0    0   3.1697372992E-01  -4.9144750829E-03  -9.9652204669E+00   1.0020285198E+01   1.0000000000E+00     0.000   1.
3000022   2   4   0   0   0   7.8949837777E-01   3.6285187286E+01   -7.3719456015E+02   7.3808747459E+02   2.5000000000E-01   8.405369E+00   0.
3000001    1    5    0    0    0   3.6096350023E+00  -2.2970389768E+01  -4.4512536659E+01   5.0229813764E+01   1.0000000000E+00     0.000  -1.
3000022   2   5   0   0   0   -4.7161071100E+00   -1.3309883043E+01   -3.5165411153E+01   3.7895425772E+01   2.5000000000E-01   2.662023E+00   0.
13    1    7    0    0    0   4.5011443536E-01   2.2663321586E+01  -4.6127866473E+02   4.6183530215E+02   1.0500000000E-01     0.000   1.
-13    1    7    0    0    0   3.3938394242E-01   1.3621865700E+01  -2.7591589542E+02   2.7625217244E+02   1.0500000000E-01     0.000  -1.
13    1    9    0    0    0  -1.5523666770E+00  -4.4391412333E+00  -1.1846881544E+01   1.2746585602E+01   1.0500000000E-01     0.000  -1.
-13    1    9    0    0    0  -3.1637404331E+00  -8.8707418095E+00  -2.3318529609E+01   2.5148840170E+01   1.0500000000E-01     0.000   1.
</event>
<event>
 13   1  9.2978750E-05  1.2500000E+02  7.5467720E-03  1.2380620E-01
   21   -1    0    0  502  501   0.0000000000E+00   0.0000000000E+00   1.5201189518E+02   1.5201189518E+02   0.0000000000E+00     0.000  -1.
   21   -1    0    0  501  502   0.0000000000E+00   0.0000000000E+00  -2.5697002169E+01   2.5697002169E+01   0.0000000000E+00     0.000  -1.
   25    2    1    2    0    0   0.0000000000E+00   0.0000000000E+00   1.2631489301E+02   1.7770889734E+02   1.2500000000E+02  1.265E-07  -1.
3000002    2    3    0    0    0   2.7670351584E+00  -8.9428504555E+00   1.4985163740E+02   1.5047639113E+02   1.0000000000E+01  1.009E-09   1.
3000002    2    3    0    0    0  -2.7670351584E+00   8.9428504555E+00  -2.3536744388E+01   2.7232506206E+01   1.0000000000E+01  1.051E-10   1.
3000001    1    4    0    0    0  -1.6505219675E+00  -8.0403265280E+00   1.2006623209E+02   1.2035061762E+02   1.0000000000E+00     0.000   1.
3000022   2   4   0   0   0   4.4175571259E+00   -9.0252392751E-01   2.9785405312E+01   3.0125773517E+01   2.5000000000E-01   7.273764E+00   0.
3000001    1    5    0    0    0   1.0617264682E+00   8.3640457148E+00  -2.0851220686E+01   2.2513505456E+01   1.0000000000E+00     0.000   1.
3000022   2   5   0   0   0   -3.8287616266E+00   5.7880474076E-01   -2.6855237024E+00   4.7190007499E+00   2.5000000000E-01   2.818584E+00   0.
13    1    7    0    0    0   2.7377947203E+00  -5.6455381059E-01   1.8860066334E+01   1.9066393683E+01   1.0500000000E-01     0.000  -1.
-13    1    7    0    0    0   1.6797624056E+00  -3.3797011692E-01   1.0925338977E+01   1.1059379834E+01   1.0500000000E-01     0.000   1.
13    1    9    0    0    0  -2.0950378828E+00   2.6964771619E-01  -1.4056882630E+00   2.5394641391E+00   1.0500000000E-01     0.000  -1.
-13    1    9    0    0    0  -1.7337237438E+00   3.0915702457E-01  -1.2798354394E+00   2.1795366107E+00   1.0500000000E-01     0.000   1.
</event>
<event>
 13   1  9.2978750E-05  1.2500000E+02  7.5467720E-03  1.2380620E-01
   21   -1    0    0  502  501   0.0000000000E+00   0.0000000000E+00   9.2469872197E+00   9.2469872197E+00   0.0000000000E+00     0.000  -1.
   21   -1    0    0  501  502   0.0000000000E+00   0.0000000000E+00  -4.2243488686E+02   4.2243488686E+02   0.0000000000E+00     0.000  -1.
   25    2    1    2    0    0   0.0000000000E+00   0.0000000000E+00  -4.1318789964E+02   4.3168187408E+02   1.2500000000E+02  1.023E-07  -1.
3000002    2    3    0    0    0   3.0485893135E+01   4.6057245747E+01  -3.0152253888E+02   3.0670262636E+02   1.0000000000E+01  1.490E-10  -1.
3000002    2    3    0    0    0  -3.0485893135E+01  -4.6057245747E+01  -1.1166536076E+02   1.2497924772E+02   1.0000000000E+01  6.734E-10  -1.
3000001    1    4    0    0    0   2.6633966132E+01   3.3814294953E+01  -2.4347365506E+02   2.4725127988E+02   1.0000000000E+00     0.000  -1.
3000022   2   4   0   0   0   3.8519270035E+00   1.2242950794E+01   -5.8048883821E+01   5.9451346483E+01   2.5000000000E-01   6.449386E-01   0.
3000001    1    5    0    0    0  -8.8497058009E+00  -6.7197588388E+00  -1.9682680013E+01   2.2624772797E+01   1.0000000000E+00     0.000  -1.
3000022   2   5   0   0   0   -2.1636187334E+01   -3.9337486908E+01   -9.1982680750E+01   1.0235447492E+02   2.5000000000E-01   4.613988E+00   0.
13    1    7    0    0    0   1.4665041366E+00   4.4720568724E+00  -2.1363552802E+01   2.1876067754E+01   1.0500000000E-01     0.000  -1.
-13    1    7    0    0    0   2.3854228669E+00   7.7708939214E+00  -3.6685331020E+01   3.7575278730E+01   1.0500000000E-01     0.000   1.
13    1    9    0    0    0  -1.0143153852E+01  -1.8556474928E+01  -4.3240423758E+01   4.8134931220E+01   1.0500000000E-01     0.000  -1.
-13    1    9    0    0    0  -1.1493033483E+01  -2.0781011980E+01  -4.8742256992E+01   5.4219543701E+01   1.0500000000E-01     0.000   1.
</event>
<event>
 13   1  9.2978750E-05  1.2500000E+02  7.5467720E-03  1.2380620E-01
   21   -1    0    0  502  501   0.0000000000E+00   0.0000000000E+00   8.6743316160E+00   8.6743316160E+00   0.0000000000E+00     0.000   1.
   21   -1    0    0  501  502   0.0000000000E+00   0.0000000000E+00  -4.5032288053E+02   4.5032288053E+02   0.0000000000E+00     0.000   1.
   25    2    1    2    0    0   0.0000000000E+00   0.0000000000E+00  -4.4164854891E+02   4.5899721214E+02   1.2500000000E+02  1.620E-08  -1.
3000002    2    3    0    0    0   2.5968299819E+01  -4.1082076746E+01  -3.6036717530E+02   3.6376722043E+02   1.0000000000E+01  1.280E-09   1.
3000002    2    3    0    0    0  -2.5968299819E+01   4.1082076746E+01  -8.1281373608E+01   9.5229991708E+01   1.0000000000E+01  1.395E-09   1.
3000001    1    4    0    0    0   1.9471149149E+01  -2.1685724260E+01  -2.1278803132E+02   2.1477696003E+02   1.0000000000E+00     0.000   1.
3000022   2   4   0   0   0   6.4971506698E+00   -1.9396352486E+01   -1.4757914398E+02   1.4899026040E+02   2.5000000000E-01   6.838497E+00   0.
3000001    1    5    0    0    0  -6.9779612773E+00   1.7358879685E+01  -3.7712149518E+01   4.2109724160E+01   1.0000000000E+00     0.000   1.
3000022   2   5   0   0   0   -1.8990338542E+01   2.3723197060E+01   -4.3569224089E+01   5.3120267549E+01   2.5000000000E-01   6.959361E+00   0.
13    1    7    0    0    0   2.6977503941E+00  -7.8665267817E+00  -6.0164724272E+01   6.0736851849E+01   1.0500000000E-01     0.000   1.
-13    1    7    0    0    0   3.7994002756E+00  -1.1529825704E+01  -8.7414419709E+01   8.8253408554E+01   1.0500000000E-01     0.000  -1.
13    1    9    0    0    0  -1.4268411562E+01   1.7806698818E+01  -3.2674444603E+01   3.9853437071E+01   1.0500000000E-01     0.000  -1.
-13    1    9    0    0    0  -4.7219269801E+00   5.9164982424E+00  -1.0894779486E+01   1.3266830477E+01   1.0500000000E-01     0.000   1.
</event>
<event>
 13   1  9.2978750E-05  1.2500000E+02  7.5467720E-03  1.2380620E-01
   21   -1    0    0  502  501   0.0000000000E+00   0.0000000000E+00   5.8368220491E+01   5.8368220491E+01   0.0000000000E+00     0.000  -1.
   21   -1    0    0  501  502   0.0000000000E+00   0.0000000000E+00  -6.6924260619E+01   6.6924260619E+01   0.0000000000E+00     0.000  -1.
   25    2    1    2    0    0   0.0000000000E+00   0.0000000000E+00  -8.5560401275E+00   1.2529248111E+02   1.2500000000E+02  1.804E-08  -1.
3000002    2    3    0    0    0  -2.3643405923E+01  -4.0069119226E+01   3.6334745323E+01   5.9872854257E+01   1.0000000000E+01  5.628E-10   1.
3000002    2    3    0    0    0   2.3643405923E+01   4.0069119226E+01  -4.4890785451E+01   6.5419626853E+01   1.0000000000E+01  6.697E-11   1.
3000001    1    4    0    0    0  -2.4183555375E+01  -3.9940940007E+01   3.4862384276E+01   5.8279575124E+01   1.0000000000E+00     0.000   1.
3000022   2   4   0   0   0   5.4014945161E-01   -1.2817921875E-01   1.4723610478E+00   1.5932791335E+00   2.5000000000E-01   6.114789E-01   0.
3000001    1    5    0    0    0   1.6365394591E+01   2.8869919253E+01  -3.7747586653E+01   5.0271052067E+01   1.0000000000E+00     0.000  -1.
3000022   2   5   0   0   0   7.2780113317E+00   1.1199199972E+01   -7.1431987977E+00   1.5148574785E+01   2.5000000000E-01   5.071349E-02   0.
13    1    7    0    0    0   1.3724694619E-01  -7.7578566706E-02   4.5718628603E-01   4.9487317404E-01   1.0500000000E-01     0.000  -1.
-13    1    7    0    0    0   4.0290250541E-01  -5.0600652044E-02   1.0151747617E+00   1.0984059594E+00   1.0500000000E-01     0.000   1.
13    1    9    0    0    0   4.9666424037E+00   7.7302933915E+00  -4.9252293668E+00   1.0425635808E+01   1.0500000000E-01     0.000   1.
-13    1    9    0    0    0   2.3113689280E+00   3.4689065809E+00  -2.2179694308E+00   4.7229389774E+00   1.0500000000E-01     0.000  -1.
</event>
<event>
 13   1  9.2978750E-05  1.2500000E+02  7.5467720E-03  1.2380620E-01
   21   -1    0    0  502  501   0.0000000000E+00   0.0000000000E+00   3.0365469524E+01   3.0365469524E+01   0.0000000000E+00     0.000   1.
   21   -1    0    0  501  502   0.0000000000E+00   0.0000000000E+00  -1.2864118557E+02   1.2864118557E+02   0.0000000000E+00     0.000   1.
   25    2    1    2    0    0   0.0000000000E+00   0.0000000000E+00  -9.8275716050E+01   1.5900665510E+02   1.2500000000E+02  1.222E-08  -1.
3000002    2    3    0    0    0  -5.7970669044E+01  -2.0146569972E+01  -5.7159588463E+01   8.4461241432E+01   1.0000000000E+01  3.673E-10  -1.
3000002    2    3    0    0    0   5.7970669044E+01   2.0146569972E+01  -4.1116127587E+01   7.4545413668E+01   1.0000000000E+01  4.007E-10  -1.
3000001    1    4    0    0    0  -4.4922184428E+01  -1.3983559148E+01  -3.8071352160E+01   6.0530739591E+01   1.0000000000E+00     0.000  -1.
3000022   2   4   0   0   0   -1.3048484616E+01   -6.1630108243E+00   -1.9088236303E+01   2.3930501841E+01   2.5000000000E-01   2.979266E+00   0.
3000001    1    5    0    0    0   3.0312435495E+01   9.1662196792E+00  -2.6909845023E+01   4.1569256524E+01   1.0000000000E+00     0.000   1.
3000022   2   5   0   0   0   2.7658233549E+01   1.0980350293E+01   -1.4206282565E+01   3.2976157144E+01   2.5000000000E-01   1.222028E+00   0.
13    1    7    0    0    0  -8.7235642935E+00  -4.0936417018E+00  -1.2824276627E+01   1.6041557667E+01   1.0500000000E-01     0.000  -1.
-13    1    7    0    0    0  -4.3249203228E+00  -2.0693691225E+00  -6.2639596754E+00   7.8889441739E+00   1.0500000000E-01     0.000   1.
13    1    9    0    0    0   1.1581902291E+01   4.6130476808E+00  -5.8815825864E+00   1.3784944988E+01   1.0500000000E-01     0.000  -1.
-13    1    9    0    0    0   1.6076331258E+01   6.3673026123E+00  -8.3246999785E+00   1.9191212156E+01   1.0500000000E-01     0.000   1.
</event>
<event>
 13   1  9.2978750E-05  1.2500000E+02  7.5467720E-03  1.2380620E-01
   21   -1    0    0  502  501   0.0000000000E+00   0.0000000000E+00   4.5152228664E+01   4.5152228664E+01   0.0000000000E+00     0.000  -1.
   21   -1    0    0  501  502   0.0000000000E+00   0.0000000000E+00  -8.6512894614E+01   8.6512894614E+01   0.0000000000E+00     0.000  -1.
   25    2    1    2    0    0   0.0000000000E+00   0.0000000000E+00  -4.1360665950E+01   1.3166512328E+02   1.2500000000E+02  4.573E-08  -1.
3000002    2    3    0    0    0   4.2938668937E+01  -2.5603716923E+01   1.7399375186E+01   5.3870380240E+01   1.0000000000E+01  1.372E-09   1.
3000002    2    3    0    0    0  -4.2938668937E+01   2.5603716923E+01  -5.8760041136E+01   7.7794743040E+01   1.0000000000E+01  1.019E-10   1.
3000001    1    4    0    0    0   3.9197559144E+01  -1.9844956643E+01   1.6492280315E+01   4.6938963101E+01   1.0000000000E+00     0.000   1.
3000022   2   4   0   0   0   3.7411097927E+00   -5.7587602807E+00   9.0709487065E-01   6.9314171391E+00   2.5000000000E-01   3.826980E+01   0.
3000001    1    5    0    0    0  -3.6698843370E+01   1.7758801342E+01  -4.9603852712E+01   6.4216215504E+01   1.0000000000E+00     0.000   1.
3000022   2   5   0   0   0   -6.2398255670E+00   7.8449155817E+00   -9.1561884235E+00   1.3578527536E+01   2.5000000000E-01   2.381101E+00   0.
13    1    7    0    0    0   2.1771974479E+00  -3.4482523776E+00   5.7441795004E-01   4.1196618997E+00   1.0500000000E-01     0.000  -1.
-13    1    7    0    0    0   1.5639123448E+00  -2.3105079031E+00   3.3267692061E-01   2.8117552394E+00   1.0500000000E-01     0.000   1.
13    1    9    0    0    0  -4.2280180174E+00   5.2361496079E+00  -6.1705179790E+00   9.1312494326E+00   1.0500000000E-01     0.000  -1.
-13    1    9    0    0    0  -2.0118075495E+00   2.6087659739E+00  -2.9856704445E+00   4.4472781031E+00   1.0500000000E-01     0.000   1.
</event>
<event>
 13   1  9.2978750E-05  1.2500000E+02  7.5467720E-03  1.2380620E-01
   21   -1    0    0  502  501   0.0000000000E+00   0.0000000000E+00   3.8144197775E+01   3.8144197775E+01   0.0000000000E+00     0.000   1.
   21   -1    0    0  501  502   0.0000000000E+00   0.0000000000E+00  -1.0240744931E+02   1.0240744931E+02   0.0000000000E+00     0.000   1.
   25    2    1    2    0    0   0.0000000000E+00   0.0000000000E+00  -6.4263251534E+01   1.4055164708E+02   1.2500000000E+02  1.775E-07  -1.
3000002    2    3    0    0    0   1.0711772882E+01  -5.5249670794E+01  -3.7086090767E+00   5.7280205852E+01   1.0000000000E+01  3.652E-10   1.
3000002    2    3    0    0    0  -1.0711772882E+01   5.5249670794E+01  -6.0554642457E+01   8.3271441228E+01   1.0000000000E+01  2.778E-10   1.
3000001    1    4    0    0    0   9.5388529687E+00  -3.0125762600E+01  -5.3887545856E+00   3.2071638003E+01   1.0000000000E+00     0.000  -1.
3000022   2   4   0   0   0   1.1729199130E+00   -2.5123908194E+01   1.6801455088E+00   2.5208567849E+01   2.5000000000E-01   2.321621E+00   0.
3000001    1    5    0    0    0  -2.1850774276E+00   5.6051051522E+00  -1.1186470822E+01   1.2740835788E+01   1.0000000000E+00     0.000   1.
3000022   2   5   0   0   0   -8.5266954540E+00   4.9644565642E+01   -4.9368171635E+01   7.0530605440E+01   2.5000000000E-01   7.133780E+00   0.
13    1    7    0    0    0   6.7347510322E-01  -1.3039535686E+01   8.5222267311E-01   1.3085120103E+01   1.0500000000E-01     0.000  -1.
-13    1    7    0    0    0   4.9944480974E-01  -1.2084372508E+01   8.2792283570E-01   1.2123447746E+01   1.0500000000E-01     0.000   1.
13    1    9    0    0    0  -2.6688671656E+00   1.5520820372E+01  -1.5366597186E+01   2.2003682670E+01   1.0500000000E-01     0.000  -1.
-13    1    9    0    0    0  -5.8578282884E+00   3.4123745270E+01  -3.4001574450E+01   4.8526922770E+01   1.0500000000E-01     0.000   1.
</event>
<event>
 13   1  9.2978750E-05  1.2500000E+02  7.5467720E-03  1.2380620E-01
   21   -1    0    0  502  501   0.0000000000E+00   0.0000000000E+00   1.9771625433E+01   1.9771625433E+01   0.0000000000E+00     0.000   1.
   21   -1    0    0  501  502   0.0000000000E+00   0.0000000000E+00  -1.9756848081E+02   1.9756848081E+02   0.0000000000E+00     0.000   1.
   25    2    1    2    0    0   0.0000000000E+00   0.0000000000E+00  -1.7779685538E+02   2.1734010625E+02   1.2500000000E+02  3.124E-08  -1.
3000002    2    3    0    0    0  -1.9950306366E+01  -4.3318735090E+01  -1.5694713871E+02   1.6433785895E+02   1.0000000000E+01  3.838E-10   1.
3000002    2    3    0    0    0   1.9950306366E+01   4.3318735090E+01  -2.0849716669E+01   5.3002247302E+01   1.0000000000E+01  4.101E-10   1.
3000001    1    4    0    0    0  -5.1846700151E+00  -1.0945495127E+01  -2.7033167148E+01   2.9639109177E+01   1.0000000000E+00     0.000  -1.
3000022   2   4   0   0   0   -1.4765636351E+01   -3.2373239963E+01   -1.2991397156E+02   1.3469874977E+02   2.5000000000E-01   5.618432E+00   0.
3000001    1    5    0    0    0   1.8950138995E+01   3.9200661610E+01  -2.1721494310E+01   4.8668500630E+01   1.0000000000E+00     0.000   1.
3000022   2   5   0   0   0   1.0001673712E+00   4.1180734807E+00   8.7177764069E-01   4.3337466721E+00   2.5000000000E-01   1.135549E+01   0.
13    1    7    0    0    0  -8.0438891987E+00  -1.7723922935E+01  -7.0853320740E+01   7.3478198689E+01   1.0500000000E-01     0.000  -1.
-13    1    7    0    0    0  -6.7217471523E+00  -1.4649317028E+01  -5.9060650823E+01   6.1220551082E+01   1.0500000000E-01     0.000   1.
13    1    9    0    0    0   6.2510337322E-01   2.3763994135E+00   5.5119723139E-01   2.5204903863E+00   1.0500000000E-01     0.000  -1.
-13    1    9    0    0    0   3.7506399797E-01   1.7416740672E+00   3.2058040930E-01   1.8132562858E+00   1.0500000000E-01     0.000   1.
</event>
<event>
 13   1  9.2978750E-05  1.2500000E+02  7.5467720E-03  1.2380620E-01
   21   -1    0    0  502  501   0.0000000000E+00   0.0000000000E+00   1.5409112057E+01   1.5409112057E+01   0.0000000000E+00     0.000   1.
   21   -1    0    0  501  502   0.0000000000E+00   0.0000000000E+00  -2.5350260194E+02   2.5350260194E+02   0.0000000000E+00     0.000   1.
   25    2    1    2    0    0   0.0000000000E+00   0.0000000000E+00  -2.3809348988E+02   2.6891171400E+02   1.2500000000E+02  6.522E-08  -1.
3000002    2    3    0    0    0  -2.1354638007E+01  -5.4372834580E+01  -7.6354306535E+01   9.6656121540E+01   1.0000000000E+01  1.529E-09   1.
3000002    2    3    0    0    0   2.1354638007E+01   5.4372834580E+01  -1.6173918334E+02   1.7225559246E+02   1.0000000000E+01  3.102E-10   1.
3000001    1    4    0    0    0  -1.5518018996E+00  -7.2932558546E+00  -1.5341543423E+01   1.7086913843E+01   1.0000000000E+00     0.000  -1.
3000022   2   4   0   0   0   -1.9802836107E+01   -4.7079578726E+01   -6.1012763113E+01   7.9569207697E+01   2.5000000000E-01   2.847495E-01   0.
3000001    1    5    0    0    0   1.4759563035E+00   2.0034716020E+00  -1.3978939558E+01   1.4233871456E+01   1.0000000000E+00     0.000  -1.
3000022   2   5   0   0   0   1.9878681703E+01   5.2369362978E+01   -1.4776024379E+02   1.5802172100E+02   2.5000000000E-01   1.526494E+01   0.
13    1    7    0    0    0  -1.3185028586E+01  -3.1447203311E+01  -4.0677637681E+01   5.3079683563E+01   1.0500000000E-01     0.000  -1.
-13    1    7    0    0    0  -6.6178075216E+00  -1.5632375415E+01  -2.0335125432E+01   2.6489524133E+01   1.0500000000E-01     0.000   1.
13    1    9    0    0    0   6.5104431906E+00   1.7238994790E+01  -4.8489350244E+01   5.1872891996E+01   1.0500000000E-01     0.000  -1.
-13    1    9    0    0    0   1.3368238513E+01   3.5130368188E+01  -9.9270893543E+01   1.0614882901E+02   1.0500000000E-01     0.000   1.
</event>
<event>
 13   1  9.2978750E-05  1.2500000E+02  7.5467720E-03  1.2380620E-01
   21   -1    0    0  502  501   0.0000000000E+00   0.0000000000E+00   1.1831543152E+01   1.1831543152E+01   0.0000000000E+00     0.000   1.
   21   -1    0    0  501  502   0.0000000000E+00   0.0000000000E+00  -3.3015558069E+02   3.3015558069E+02   0.0000000000E+00     0.000   1.
   25    2    1    2    0    0   0.0000000000E+00   0.0000000000E+00  -3.1832403754E+02   3.4198712385E+02   1.2500000000E+02  6.503E-09  -1.
3000002    2    3    0    0    0  -3.1555184191E+01  -3.7654056439E+01  -2.6126239495E+02   2.6602931536E+02   1.0000000000E+01  8.997E-10   1.
3000002    2    3    0    0    0   3.1555184191E+01   3.7654056439E+01  -5.7061642589E+01   7.5957808490E+01   1.0000000000E+01  9.668E-10   1.
3000001    1    4    0    0    0  -2.9345653504E+01  -3.4685230638E+01  -2.2273679774E+02   2.2732556757E+02   1.0000000000E+00     0.000   1.
3000022   2   4   0   0   0   -2.2095306868E+00   -2.9688258010E+00   -3.8525597209E+01   3.8703747788E+01   2.5000000000E-01   1.673314E+00   0.
3000001    1    5    0    0    0   1.0333050516E+01   1.9530822410E+01  -2.7721213438E+01   3.5463934235E+01   1.0000000000E+00     0.000  -1.
3000022   2   5   0   0   0   2.1222133674E+01   1.8123234029E+01   -2.9340429151E+01   4.0493874254E+01   2.5000000000E-01   5.753799E+00   0.
13    1    7    0    0    0  -6.5043606125E-01  -9.2187314647E-01  -1.2167218720E+01   1.2219867166E+01   1.0500000000E-01     0.000   1.
-13    1    7    0    0    0  -1.5590946255E+00  -2.0469526546E+00  -2.6358378489E+01   2.6483880621E+01   1.0500000000E-01     0.000  -1.
13    1    9    0    0    0   1.1578512289E+01   9.8550796489E+00  -1.6075397906E+01   2.2127222703E+01   1.0500000000E-01     0.000  -1.
-13    1    9    0    0    0   9.6436213854E+00   8.2681543800E+00  -1.3265031245E+01   1.8366651552E+01   1.0500000000E-01     0.000   1.
</event>
<event>
 13   1  9.2978750E-05  1.2500000E+02  7.5467720E-03  1.2380620E-01
   21   -1    0    0  502  501   0.0000000000E+00   0.0000000000E+00   1.7454222135E+02   1.7454222135E+02   0.0000000000E+00     0.000  -1.
   21   -1    0    0  501  502   0.0000000000E+00   0.0000000000E+00  -2.2379971847E+01   2.2379971847E+01   0.0000000000E+00     0.000  -1.
   25    2    1    2    0    0   0.0000000000E+00   0.0000000000E+00   1.5216224950E+02   1.9692219320E+02   1.2500000000E+02  9.977E-08  -1.
3000002    2    3    0    0    0  -6.1935130619E+00   6.0957795400E+01   8.7445437618E+01   1.0724232832E+02   1.0000000000E+01  2.186E-10  -1.
3000002    2    3    0    0    0   6.1935130619E+00  -6.0957795400E+01   6.4716811882E+01   8.9679864877E+01   1.0000000000E+01  2.145E-10  -1.
3000001    1    4    0    0    0  -5.8091877166E+00   3.7609770980E+01   4.6395993979E+01   6.0015246333E+01   1.0000000000E+00     0.000   1.
3000022   2   4   0   0   0   -3.8432534533E-01   2.3348024420E+01   4.1049443639E+01   4.7227081991E+01   2.5000000000E-01   7.799061E+00   0.
3000001    1    5    0    0    0   3.6172283180E+00  -5.6744888389E+01   6.1590345330E+01   8.3829811742E+01   1.0000000000E+00     0.000  -1.
3000022   2   5   0   0   0   2.5762847439E+00   -4.2129070112E+00   3.1264665526E+00   5.8500531340E+00   2.5000000000E-01   1.645060E+00   0.
13    1    7    0    0    0  -2.4757091598E-01   1.6560240685E+01   2.9042617794E+01   3.3433329721E+01   1.0500000000E-01     0.000  -1.
-13    1    7    0    0    0  -1.3675442935E-01   6.7877837346E+00   1.2006825845E+01   1.3793752269E+01   1.0500000000E-01     0.000   1.
13    1    9    0    0    0   1.1069610408E+00  -1.6897206250E+00   1.2926821908E+00   2.4005355200E+00   1.0500000000E-01     0.000  -1.
-13    1    9    0    0    0   1.4693237030E+00  -2.5231863862E+00   1.8337843618E+00   3.4495176140E+00   1.0500000000E-01     0.000   1.
</event>
<event>
 13   1  9.2978750E-05  1.2500000E+02  7.5467720E-03  1.2380620E-01
   21   -1    0    0  502  501   0.0000000000E+00   0.0000000000E+00   2.4967082630E+01   2.4967082630E+01   0.0000000000E+00     0.000  -1.
   21   -1    0    0  501  502   0.0000000000E+00   0.0000000000E+00  -1.5645600481E+02   1.5645600481E+02   0.0000000000E+00     0.000  -1.
   25    2    1    2    0    0   0.0000000000E+00   0.0000000000E+00  -1.3148892218E+02   1.8142308744E+02   1.2500000000E+02  3.202E-08  -1.
3000002    2    3    0    0    0  -1.2366340290E+01  -2.2449189844E+01  -1.4719491744E+02   1.4974390210E+02   1.0000000000E+01  1.820E-09   1.
3000002    2    3    0    0    0   1.2366340290E+01   2.2449189844E+01   1.5705995257E+01   3.1679185340E+01   1.0000000000E+01  1.835E-10   1.
3000001    1    4    0    0    0  -8.9653994500E+00  -2.2292483357E+01  -1.2573297523E+02   1.2801216451E+02   1.0000000000E+00     0.000   1.
3000022   2   4   0   0   0   -3.4009408395E+00   -1.5670648666E-01   -2.1461942205E+01   2.1731737591E+01   2.5000000000E-01   3.076358E+00   0.
3000001    1    5    0    0    0   1.3839110951E+01   2.0215094560E+01   1.5447565630E+01   2.8979274040E+01   1.0000000000E+00     0.000   1.
3000022   2   5   0   0   0   -1.4727706612E+00   2.2340952836E+00   2.5842962687E-01   2.6999113002E+00   2.5000000000E-01   2.184631E+00   0.
13    1    7    0    0    0  -1.1193492996E+00  -1.0217777364E-01  -6.9984945550E+00   7.0889586110E+00   1.0500000000E-01     0.000  -1.
-13    1    7    0    0    0  -2.2815915400E+00  -5.4528713020E-02  -1.4463447650E+01   1.4642778980E+01   1.0500000000E-01     0.000   1.
13    1    9    0    0    0  -8.6427358879E-01   1.2838195093E+00   2.1278415892E-01   1.5657150019E+00   1.0500000000E-01     0.000   1.
-13    1    9    0    0    0  -6.0849707240E-01   9.5027577429E-01   4.5645467948E-02   1.1341962983E+00   1.0500000000E-01     0.000  -1.
</event>
<event>
 13   1  9.2978750E-05  1.2500000E+02  7.5467720E-03  1.2380620E-01
   21   -1    0    0  502  501   0.0000000000E+00   0.0000000000E+00   1.4710546183E+01   1.4710546183E+01   0.0000000000E+00     0.000  -1.
   21   -1    0    0  501  502   0.0000000000E+00   0.0000000000E+00  -2.6554078627E+02   2.6554078627E+02   0.0000000000E+00     0.000  -1.
   25    2    1    2    0    0   0.0000000000E+00   0.0000000000E+00  -2.5083024009E+02   2.8025133246E+02   1.2500000000E+02  2.463E-08  -1.
3000002    2    3    0    0    0   2.5026596568E+01   1.0691227508E+01  -1.2794395282E+00   2.9021885654E+01   1.0000000000E+01  4.692E-11  -1.
3000002    2    3    0    0    0  -2.5026596568E+01  -1.0691227508E+01  -2.4955080056E+02   2.5122944681E+02   1.0000000000E+01  1.172E-09  -1.
3000001    1    4    0    0    0  -4.5772782707E-02   8.5837061545E-01  -1.6176707216E+00   2.0870442795E+00   1.0000000000E+00     0.000  -1.
3000022   2   4   0   0   0   2.5072369351E+01   9.8328568924E+00   3.3823119335E-01   2.6934841375E+01   2.5000000000E-01   1.621099E+00   0.
3000001    1    5    0    0    0  -2.4032157967E+01  -1.1366696398E+01  -2.1257024190E+02   2.1422850918E+02   1.0000000000E+00     0.000  -1.
3000022   2   5   0   0   0   -9.9443860112E-01   6.7546889005E-01   -3.6980558659E+01   3.7000937624E+01   2.5000000000E-01   9.981847E-01   0.
13    1    7    0    0    0   1.3069578333E+01   5.1581502264E+00   1.1601448543E-01   1.4051507959E+01   1.0500000000E-01     0.000   1.
-13    1    7    0    0    0   1.2002791017E+01   4.6747066660E+00   2.2221670792E-01   1.2883333415E+01   1.0500000000E-01     0.000  -1.
13    1    9    0    0    0  -5.7970039779E-01   3.3941210962E-01  -2.2000213338E+01   2.2010717049E+01   1.0500000000E-01     0.000   1.
-13    1    9    0    0    0  -4.1473820332E-01   3.3605678043E-01  -1.4980345321E+01   1.4990220575E+01   1.0500000000E-01     0.000  -1.
</event>
<event>
 13   1  9.2978750E-05  1.2500000E+02  7.5467720E-03  1.2380620E-01
   21   -1    0    0  502  501   0.0000000000E+00   0.0000000000E+00   9.0029257239E+00   9.0029257239E+00   0.0000000000E+00     0.000   1.
   21   -1    0    0  501  502   0.0000000000E+00   0.0000000000E+00  -4.3388672969E+02   4.3388672969E+02   0.0000000000E+00     0.000   1.
   25    2    1    2    0    0   0.0000000000E+00   0.0000000000E+00  -4.2488380397E+02   4.4288965542E+02   1.2500000000E+02  1.544E-08  -1.
3000002    2    3    0    0    0   5.2186074575E+01   2.9031276350E+01  -1.5754660672E+02   1.6878132206E+02   1.0000000000E+01  3.818E-10   1.
3000002    2    3    0    0    0  -5.2186074575E+01  -2.9031276350E+01  -2.6733719725E+02   2.7410833336E+02   1.0000000000E+01  3.801E-09   1.
3000001    1    4    0    0    0   4.2846525407E+01   2.7598033966E+01  -1.2879273092E+02   1.3851369519E+02   1.0000000000E+00     0.000   1.
3000022   2   4   0   0   0   9.3395491682E+00   1.4332423842E+00   -2.8753875805E+01   3.0267626868E+01   2.5000000000E-01   4.708005E+00   0.
3000001    1    5    0    0    0  -2.2412159109E+00  -2.2282710372E+00  -8.2087189831E+00   8.8527570800E+00   1.0000000000E+00     0.000   1.
3000022   2   5   0   0   0   -4.9944858664E+01   -2.6803005313E+01   -2.5912847827E+02   2.6525557628E+02   2.5000000000E-01   8.348383E-01   0.
13    1    7    0    0    0   3.5572429767E+00   5.1842704304E-01  -1.1116006532E+01   1.1683294502E+01   1.0500000000E-01     0.000  -1.
-13    1    7    0    0    0   5.7823061914E+00   9.1481534112E-01  -1.7637869273E+01   1.8584332366E+01   1.0500000000E-01     0.000   1.
13    1    9    0    0    0  -2.8717831293E+01  -1.5477613024E+01  -1.4927530500E+02   1.5279855381E+02   1.0500000000E-01     0.000   1.
-13    1    9    0    0    0  -2.1227027371E+01  -1.1325392289E+01  -1.0985317327E+02   1.1245702248E+02   1.0500000000E-01     0.000  -1.
</event>
<event>
 13   1  9.2978750E-05  1.2500000E+02  7.5467720E-03  1.2380620E-01
   21   -1    0    0  502  501   0.0000000000E+00   0.0000000000E+00   5.1350822896E+02   5.1350822896E+02   0.0000000000E+00     0.000   1.
   21   -1    0    0  501  502   0.0000000000E+00   0.0000000000E+00  -7.6069861781E+00   7.6069861781E+00   0.0000000000E+00     0.000   1.
   25    2    1    2    0    0   0.0000000000E+00   0.0000000000E+00   5.0590124278E+02   5.2111521514E+02   1.2500000000E+02  1.983E-08  -1.
3000002    2    3    0    0    0   8.3020966565E+00  -2.3953491570E+01   1.8467565756E+01   3.2920290889E+01   1.0000000000E+01  6.287E-10  -1.
3000002    2    3    0    0    0  -8.3020966565E+00   2.3953491570E+01   4.8743367702E+02   4.8819492425E+02   1.0000000000E+01  4.283E-11  -1.
3000001    1    4    0    0    0   7.5242533426E+00  -1.9903742235E+01   1.9254966239E+01   2.8714579366E+01   1.0000000000E+00     0.000  -1.
3000022   2   4   0   0   0   7.7784331394E-01   -4.0497493351E+00   -7.8740048251E-01   4.2057115234E+00   2.5000000000E-01   1.792922E+01   0.
3000001    1    5    0    0    0  -7.6086932000E+00   2.0905532240E+01   3.4033038562E+02   3.4105821332E+02   1.0000000000E+00     0.000  -1.
3000022   2   5   0   0   0   -6.9340345654E-01   3.0479593301E+00   1.4710329140E+02   1.4713671094E+02   2.5000000000E-01   1.380409E+00   0.
13    1    7    0    0    0   2.8628146327E-01  -1.4733365722E+00  -2.2729256569E-01   1.5216322295E+00   1.0500000000E-01     0.000  -1.
-13    1    7    0    0    0   4.9156185067E-01  -2.5764127628E+00  -5.6010791682E-01   2.6840792939E+00   1.0500000000E-01     0.000   1.
13    1    9    0    0    0  -1.4973284502E-01   7.5719404400E-01   3.7095027442E+01   3.7103205369E+01   1.0500000000E-01     0.000  -1.
-13    1    9    0    0    0  -5.4367061152E-01   2.2907652861E+00   1.1000826396E+02   1.1003350557E+02   1.0500000000E-01     0.000   1.
</event>
<event>
 13   1  9.2978750E-05  1.2500000E+02  7.5467720E-03  1.2380620E-01
   21   -1    0    0  502  501   0.0000000000E+00   0.0000000000E+00   7.9201088912E+01   7.9201088912E+01   0.0000000000E+00     0.000  -1.
   21   -1    0    0  501  502   0.0000000000E+00   0.0000000000E+00  -4.9320660279E+01   4.9320660279E+01   0.0000000000E+00     0.000  -1.
   25    2    1    2    0    0   0.0000000000E+00   0.0000000000E+00   2.9880428633E+01   1.2852174919E+02   1.2500000000E+02  1.385E-08  -1.
3000002    2    3    0    0    0  -5.8015552444E+01   9.3093533584E-01   3.6497054391E+01   6.9272692637E+01   1.0000000000E+01  2.697E-11  -1.
3000002    2    3    0    0    0   5.8015552444E+01  -9.3093533584E-01  -6.6166257578E+00   5.9249056553E+01   1.0000000000E+01  9.254E-10  -1.
3000001    1    4    0    0    0  -4.7883286655E+00   2.5521950954E+00   4.7115984147E+00   7.2554083851E+00   1.0000000000E+00     0.000   1.
3000022   2   4   0   0   0   -5.3227223779E+01   -1.6212597595E+00   3.1785455976E+01   6.2017284252E+01   2.5000000000E-01   2.448003E+00   0.
3000001    1    5    0    0    0   4.4112455580E+01  -4.6194535749E+00  -3.3136416497E+00   4.4488518852E+01   1.0000000000E+00     0.000  -1.
3000022   2   5   0   0   0   1.3903096864E+01   3.6885182391E+00   -3.3029841081E+00   1.4760537701E+01   2.5000000000E-01   5.199598E+00   0.
13    1    7    0    0    0  -3.1483138030E+01  -1.0023808456E+00   1.8746837213E+01   3.6655800061E+01   1.0500000000E-01     0.000   1.
-13    1    7    0    0    0  -2.1744085748E+01  -6.1887891386E-01   1.3038618763E+01   2.5361484191E+01   1.0500000000E-01     0.000  -1.
13    1    9    0    0    0   6.9002225238E+00   1.8158147709E+00  -1.7064383293E+00   7.3371118931E+00   1.0500000000E-01     0.000  -1.
-13    1    9    0    0    0   7.0028743398E+00   1.8727034682E+00  -1.5965457788E+00   7.4234258078E+00   1.0500000000E-01     0.000   1.
</event>
<event>
 13   1  9.2978750E-05  1.2500000E+02  7.5467720E-03  1.2380620E-01
   21   -1    0    0  502  501   0.0000000000E+00   0.0000000000E+00   1.2012393558E+01   1.2012393558E+01   0.0000000000E+00     0.000  -1.
   21   -1    0    0  501  502   0.0000000000E+00   0.0000000000E+00  -3.2518498341E+02   3.2518498341E+02   0.0000000000E+00     0.000  -1.
   25    2    1    2    0    0   0.0000000000E+00   0.0000000000E+00  -3.1317258985E+02   3.3719737697E+02   1.2500000000E+02  1.240E-07  -1.
3000002    2    3    0    0    0  -5.1278554270E-01  -2.6827499650E+01  -6.7243736584E+00   2.9414195341E+01   1.0000000000E+01  3.543E-10  -1.
3000002    2    3    0    0    0   5.1278554270E-01   2.6827499650E+01  -3.0644821619E+02   3.0778318163E+02   1.0000000000E+01  1.356E-09  -1.
3000001    1    4    0    0    0  -3.4647114869E+00  -2.3663539655E+01  -3.9302643243E+00   2.4257252778E+01   1.0000000000E+00     0.000  -1.
3000022   2   4   0   0   0   2.9519259442E+00   -3.1639599954E+00   -2.7941093341E+00   5.1569425635E+00   2.5000000000E-01   1.419630E+01   0.
3000001    1    5    0    0    0   5.1606430888E-01   5.2052871537E-01  -3.8779286866E+00   4.0713147033E+00   1.0000000000E+00     0.000  -1.
3000022   2   5   0   0   0   -3.2787661812E-03   2.6306970935E+01   -3.0257028750E+02   3.0371186693E+02   2.5000000000E-01   4.189767E+00   0.
13    1    7    0    0    0   1.0421496145E+00  -1.1306136341E+00  -9.2679154357E-01   1.7984244699E+00   1.0500000000E-01     0.000  -1.
-13    1    7    0    0    0   1.9097763296E+00  -2.0333463612E+00  -1.8673177905E+00   3.3585180935E+00   1.0500000000E-01     0.000   1.
13    1    9    0    0    0  -3.6710706986E-02   7.6581726675E+00  -8.8367904921E+01   8.8699191662E+01   1.0500000000E-01     0.000  -1.
-13    1    9    0    0    0   3.3431940805E-02   1.8648798267E+01  -2.1420238258E+02   2.1501267526E+02   1.0500000000E-01     0.000   1.
</event>
<event>
 13   1  9.2978750E-05  1.2500000E+02  7.5467720E-03  1.2380620E-01
   21   -1    0    0  502  501   0.0000000000E+00   0.0000000000E+00   9.5210910612E+01   9.5210910612E+01   0.0000000000E+00     0.000   1.
   21   -1    0    0  501  502   0.0000000000E+00   0.0000000000E+00  -4.1027335784E+01   4.1027335784E+01   0.0000000000E+00     0.000   1.
   25    2    1    2    0    0   0.0000000000E+00   0.0000000000E+00   5.4183574828E+01   1.3623824640E+02   1.2500000000E+02  8.550E-08  -1.
3000002    2    3    0    0    0  -2.9231930332E+01  -4.0305365239E+01  -1.2614637173E+01   5.2327404761E+01   1.0000000000E+01  1.096E-09  -1.
3000002    2    3    0    0    0   2.9231930332E+01   4.0305365239E+01   6.6798212001E+01   8.3910841639E+01   1.0000000000E+01  2.946E-11  -1.
3000001    1    4    0    0    0  -2.3370453815E+01  -2.6237655278E+01  -5.7795605160E+00   3.5622969918E+01   1.0000000000E+00     0.000  -1.
3000022   2   4   0   0   0   -5.8614765165E+00   -1.4067709961E+01   -6.8350766573E+00   1.6704434843E+01   2.5000000000E-01   8.277933E+00   0.
3000001    1    5    0    0    0   2.8461348325E+01   3.5926848491E+01   6.3716047762E+01   7.8495359948E+01   1.0000000000E+00     0.000  -1.
3000022   2   5   0   0   0   7.7058200646E-01   4.3785167488E+00   3.0821642394E+00   5.4154816911E+00   2.5000000000E-01   4.777986E+00   0.
13    1    7    0    0    0  -2.3212371453E+00  -5.4124245648E+00  -2.6506658183E+00   6.4590661736E+00   1.0500000000E-01     0.000  -1.
-13    1    7    0    0    0  -3.5402393712E+00  -8.6552853967E+00  -4.1844108390E+00   1.0245368669E+01   1.0500000000E-01     0.000   1.
13    1    9    0    0    0   2.5249700752E-01   1.6786378957E+00   1.1240560787E+00   2.0386532299E+00   1.0500000000E-01     0.000   1.
-13    1    9    0    0    0   5.1808499894E-01   2.6998788531E+00   1.9581081607E+00   3.3768284612E+00   1.0500000000E-01     0.000  -1.
</event>
<event>
 13   1  9.2978750E-05  1.2500000E+02  7.5467720E-03  1.2380620E-01
   21   -1    0    0  502  501   0.0000000000E+00   0.0000000000E+00   5.2399361372E+00   5.2399361372E+00   0.0000000000E+00     0.000  -1.
   21   -1    0    0  501  502   0.0000000000E+00   0.0000000000E+00  -7.4547664279E+02   7.4547664279E+02   0.0000000000E+00     0.000  -1.
   25    2    1    2    0    0   0.0000000000E+00   0.0000000000E+00  -7.4023670665E+02   7.5071657892E+02   1.2500000000E+02  1.140E-08  -1.
3000002    2    3    0    0    0   1.5040757219E+01  -4.7991398234E+01  -5.8472153591E+02   5.8696564911E+02   1.0000000000E+01  9.006E-10   1.
3000002    2    3    0    0    0  -1.5040757219E+01   4.7991398234E+01  -1.5551517074E+02   1.6375092981E+02   1.0000000000E+01  4.692E-10   1.
3000001    1    4    0    0    0   1.8853448868E+00  -2.0259090293E+01  -2.0768327638E+02   2.0867996682E+02   1.0000000000E+00     0.000  -1.
3000022   2   4   0   0   0   1.3155412332E+01   -2.7732307941E+01   -3.7703825953E+02   3.7828568229E+02   2.5000000000E-01   4.820971E+00   0.
3000001    1    5    0    0    0  -9.2334127837E+00   1.5387540425E+01  -4.8208176503E+01   5.1449592746E+01   1.0000000000E+00     0.000  -1.
3000022   2   5   0   0   0   -5.8073444350E+00   3.2603857809E+01   -1.0730699424E+02   1.1230133706E+02   2.5000000000E-01   1.097521E+01   0.
13    1    7    0    0    0   9.4433059374E+00  -1.9991498320E+01  -2.7177717942E+02   2.7267504894E+02   1.0500000000E-01     0.000   1.
-13    1    7    0    0    0   3.7121063945E+00  -7.7408096211E+00  -1.0526108011E+02   1.0561063336E+02   1.0500000000E-01     0.000  -1.
13    1    9    0    0    0  -1.7507637944E+00   1.0095227341E+01  -3.3241996713E+01   3.4785344031E+01   1.0500000000E-01     0.000  -1.
-13    1    9    0    0    0  -4.0565806405E+00   2.2508630469E+01  -7.4064997523E+01   7.7515993028E+01   1.0500000000E-01     0.000   1.
</event>
<event>
 13   1  9.2978750E-05  1.2500000E+02  7.5467720E-03  1.2380620E-01
   21   -1    0    0  502  501   0.0000000000E+00   0.0000000000E+00   1.6221538075E+02   1.6221538075E+02   0.0000000000E+00     0.000   1.
   21   -1    0    0  501  502   0.0000000000E+00   0.0000000000E+00  -2.4080638851E+01   2.4080638851E+01   0.0000000000E+00     0.000   1.
   25    2    1    2    0    0   0.0000000000E+00   0.0000000000E+00   1.3813474190E+02   1.8629601960E+02   1.2500000000E+02  6.222E-09  -1.
3000002    2    3    0    0    0  -3.0750541733E+01   3.9858200228E+01   1.2222105525E+02   1.3256039487E+02   1.0000000000E+01  3.104E-11   1.
3000002    2    3    0    0    0   3.0750541733E+01  -3.9858200228E+01   1.5913686654E+01   5.3735624731E+01   1.0000000000E+01  1.200E-09   1.
3000001    1    4    0    0    0  -1.4160100841E+01   2.0792373980E+01   4.8812381459E+01   5.4922489522E+01   1.0000000000E+00     0.000   1.
3000022   2   4   0   0   0   -1.6590440893E+01   1.9065826248E+01   7.3408673787E+01   7.7637905347E+01   2.5000000000E-01   6.454163E-01   0.
3000001    1    5    0    0    0   2.6402467751E+01  -2.7157522728E+01   1.1308900453E+01   3.9541276832E+01   1.0000000000E+00     0.000  -1.
3000022   2   5   0   0   0   4.3480739823E+00   -1.2700677500E+01   4.6047862005E+00   1.4194347899E+01   2.5000000000E-01   1.042319E+00   0.
13    1    7    0    0    0  -8.8744864012E+00   1.0110171109E+01   3.8968605240E+01   4.1225420412E+01   1.0500000000E-01     0.000   1.
-13    1    7    0    0    0  -7.7159544912E+00   8.9556551390E+00   3.4440068546E+01   3.6412484935E+01   1.0500000000E-01     0.000  -1.
13    1    9    0    0    0   2.1691693176E+00  -6.1391173909E+00   2.2093510372E+00   6.8765045534E+00   1.0500000000E-01     0.000  -1.
-13    1    9    0    0    0   2.1789046648E+00  -6.5615601094E+00   2.3954351633E+00   7.3178433454E+00   1.0500000000E-01     0.000   1.
</event>
<event>
 13   1  9.2978750E-05  1.2500000E+02  7.5467720E-03  1.2380620E-01
   21   -1    0    0  502  501   0.0000000000E+00   0.0000000000E+00   5.7838960353E+02   5.7838960353E+02   0.0000000000E+00     0.000   1.
   21   -1    0    0  501  502   0.0000000000E+00   0.0000000000E+00  -6.7536656541E+00   6.7536656541E+00   0.0000000000E+00     0.000   1.
   25    2    1    2    0    0   0.0000000000E+00   0.0000000000E+00   5.7163593787E+02   5.8514326918E+02   1.2500000000E+02  2.973E-08  -1.
3000002    2    3    0    0    0   3.6152927128E+01   2.1528583652E+01   7.4608724269E+01   8.6237902288E+01   1.0000000000E+01  2.143E-10   1.
3000002    2    3    0    0    0  -3.6152927128E+01  -2.1528583652E+01   4.9702721360E+02   4.9890536689E+02   1.0000000000E+01  3.376E-10   1.
3000001    1    4    0    0    0   2.3705676342E+00   4.6661693969E+00   6.9625360546E+00   8.7675330659E+00   1.0000000000E+00     0.000   1.
3000022   2   4   0   0   0   3.3782359493E+01   1.6862414255E+01   6.7646188215E+01   7.7470369222E+01   2.5000000000E-01   1.769826E-01   0.
3000001    1    5    0    0    0  -3.1952325686E+01  -1.7396902087E+01   3.8287502195E+02   3.8460094352E+02   1.0000000000E+00     0.000   1.
3000022   2   5   0   0   0   -4.2006014420E+00   -4.1316815653E+00   1.1415219165E+02   1.1430442338E+02   2.5000000000E-01   4.556541E+00   0.
13    1    7    0    0    0   8.7283472120E+00   4.3538413489E+00   1.7413122550E+01   1.9959154328E+01   1.0500000000E-01     0.000  -1.
-13    1    7    0    0    0   2.5054012281E+01   1.2508572906E+01   5.0233065664E+01   5.7511214894E+01   1.0500000000E-01     0.000   1.
13    1    9    0    0    0  -3.0960664342E+00  -3.0808700833E+00   8.4221774142E+01   8.4335020320E+01   1.0500000000E-01     0.000   1.
-13    1    9    0    0    0  -1.1045350078E+00  -1.0508114820E+00   2.9930417508E+01   2.9969403056E+01   1.0500000000E-01     0.000  -1.
</event>
<event>
 13   1  9.2978750E-05  1.2500000E+02  7.5467720E-03  1.2380620E-01
   21   -1    0    0  502  501   0.0000000000E+00   0.0000000000E+00   1.5106287836E+01   1.5106287836E+01   0.0000000000E+00     0.000   1.
   21   -1    0    0  501  502   0.0000000000E+00   0.0000000000E+00  -2.5858437510E+02   2.5858437510E+02   0.0000000000E+00     0.000   1.
   25    2    1    2    0    0   0.0000000000E+00   0.0000000000E+00  -2.4347808726E+02   2.7369066293E+02   1.2500000000E+02  2.333E-08  -1.
3000002    2    3    0    0    0  -6.0089682203E+01  -8.9546980195E+00  -1.4524902770E+02   1.5776006013E+02   1.0000000000E+01  2.537E-11  -1.
3000002    2    3    0    0    0   6.0089682203E+01   8.9546980195E+00  -9.8229059556E+01   1.1593060280E+02   1.0000000000E+01  4.373E-10  -1.
3000001    1    4    0    0    0  -8.0262144125E+00  -1.6080961765E+00  -2.9449778864E+01   3.0582602346E+01   1.0000000000E+00     0.000   1.
3000022   2   4   0   0   0   -5.2063467790E+01   -7.3466018430E+00   -1.1579924884E+02   1.2717745779E+02   2.5000000000E-01   2.291366E-01   0.
3000001    1    5    0    0    0   3.2453057250E+01   7.6715638216E-01  -4.6620393908E+01   5.6817696028E+01   1.0000000000E+00     0.000   1.
3000022   2   5   0   0   0   2.7636624953E+01   8.1875416373E+00   -5.1608665648E+01   5.9112906770E+01   2.5000000000E-01   1.423767E+00   0.
13    1    7    0    0    0  -2.6956728871E+01  -3.7359734543E+00  -5.9916322816E+01   6.5807290583E+01   1.0500000000E-01     0.000   1.
-13    1    7    0    0    0  -2.5106738919E+01  -3.6106283886E+00  -5.5882926023E+01   6.1370167201E+01   1.0500000000E-01     0.000  -1.
13    1    9    0    0    0   1.2908268004E+01   3.8731303259E+00  -2.4228933535E+01   2.7725020589E+01   1.0500000000E-01     0.000  -1.
-13    1    9    0    0    0   1.4728356949E+01   4.3144113115E+00  -2.7379732113E+01   3.1387886182E+01   1.0500000000E-01     0.000   1.
</event>
<event>
 13   1  9.2978750E-05  1.2500000E+02  7.5467720E-03  1.2380620E-01
   21   -1    0    0  502  501   0.0000000000E+00   0.0000000000E+00   2.9771624883E+02   2.9771624883E+02   0.0000000000E+00     0.000   1.
   21   -1    0    0  501  502   0.0000000000E+00   0.0000000000E+00  -1.3120714826E+01   1.3120714826E+01   0.0000000000E+00     0.000   1.
   25    2    1    2    0    0   0.0000000000E+00   0.0000000000E+00   2.8459553401E+02   3.1083696366E+02   1.2500000000E+02  3.067E-08  -1.
3000002    2    3    0    0    0   5.8033105466E+01   2.0436228096E+01   1.5363045838E+02   1.6579444650E+02   1.0000000000E+01  6.261E-10  -1.
3000002    2    3    0    0    0  -5.8033105466E+01  -2.0436228096E+01   1.3096507563E+02   1.4504251716E+02   1.0000000000E+01  5.152E-10  -1.
3000001    1    4    0    0    0   5.1903769874E+01   1.4807365493E+01   1.3463035404E+02   1.4505030723E+02   1.0000000000E+00     0.000  -1.
3000022   2   4   0   0   0   6.1293355921E+00   5.6288626031E+00   1.9000104344E+01   2.0744139271E+01   2.5000000000E-01   7.872633E-01   0.
3000001    1    5    0    0    0  -5.7677407110E+01  -2.1186349202E+01   1.2876805930E+02   1.4268061458E+02   1.0000000000E+00     0.000  -1.
3000022   2   5   0   0   0   -3.5569835606E-01   7.5012110624E-01   2.1970163326E+00   2.3619025721E+00   2.5000000000E-01   1.963529E+00   0.
13    1    7    0    0    0   3.6766587943E+00   3.4564145823E+00   1.1467433488E+01   1.2529073288E+01   1.0500000000E-01     0.000  -1.
-13    1    7    0    0    0   2.4526767978E+00   2.1724480208E+00   7.5326708562E+00   8.2150659830E+00   1.0500000000E-01     0.000   1.
13    1    9    0    0    0  -2.4818161383E-01   4.8616951845E-01   1.2677814554E+00   1.3842867235E+00   1.0500000000E-01     0.000   1.
-13    1    9    0    0    0  -1.0751674223E-01   2.6395158779E-01   9.2923487714E-01   9.7761584861E-01   1.0500000000E-01     0.000  -1.
</event>
<event>
 13   1  9.2978750E-05  1.2500000E+02  7.5467720E-03  1.2380620E-01
   21   -1    0    0  502  501   0.0000000000E+00   0.0000000000E+00   2.3782811046E+02   2.3782811046E+02   0.0000000000E+00     0.000   1.
   21   -1    0    0  501  502   0.0000000000E+00   0.0000000000E+00  -1.6424677438E+01   1.6424677438E+01   0.0000000000E+00     0.000   1.
   25    2    1    2    0    0   0.0000000000E+00   0.0000000000E+00   2.2140343302E+02   2.5425278789E+02   1.2500000000E+02  4.046E-08  -1.
3000002    2    3    0    0    0   9.5871927376E+00  -6.0722536326E+01   1.0011125230E+02   1.1790421333E+02   1.0000000000E+01  7.674E-10  -1.
3000002    2    3    0    0    0  -9.5871927376E+00   6.0722536326E+01   1.2129218072E+02   1.3634857456E+02   1.0000000000E+01  1.388E-10  -1.
3000001    1    4    0    0    0   3.5856634259E+00  -1.8237274754E+01   2.2306091167E+01   2.9051968536E+01   1.0000000000E+00     0.000   1.
3000022   2   4   0   0   0   6.0015293117E+00   -4.2485261572E+01   7.7805161137E+01   8.8852244792E+01   2.5000000000E-01   1.772553E+01   0.
3000001    1    5    0    0    0  -2.6625527557E-02   6.1989506282E+00   1.9393103159E+01   2.0384311319E+01   1.0000000000E+00     0.000  -1.
3000022   2   5   0   0   0   -9.5605672101E+00   5.4523585698E+01   1.0189907756E+02   1.1596426324E+02   2.5000000000E-01   1.750758E+01   0.
13    1    7    0    0    0   2.6792397664E+00  -1.9195625245E+01   3.5024494496E+01   4.0029696401E+01   1.0500000000E-01     0.000   1.
-13    1    7    0    0    0   3.3222895453E+00  -2.3289636327E+01   4.2780666641E+01   4.8822548390E+01   1.0500000000E-01     0.000  -1.
13    1    9    0    0    0  -3.4022637043E+00   1.9249839810E+01   3.5879015731E+01   4.0858861044E+01   1.0500000000E-01     0.000   1.
-13    1    9    0    0    0  -6.1583035058E+00   3.5273745888E+01   6.6020061826E+01   7.5105402200E+01   1.0500000000E-01     0.000  -1.
</event>
<event>
 13   1  9.2978750E-05  1.2500000E+02  7.5467720E-03  1.2380620E-01
   21   -1    0    0  502  501   0.0000000000E+00   0.0000000000E+00   9.2277932929E+01   9.2277932929E+01   0.0000000000E+00     0.000   1.
   21   -1    0    0  501  502   0.0000000000E+00   0.0000000000E+00  -4.2331355678E+01   4.2331355678E+01   0.0000000000E+00     0.000   1.
   25    2    1    2    0    0   0.0000000000E+00   0.0000000000E+00   4.9946577251E+01   1.3460928861E+02   1.2500000000E+02  3.826E-08  -1.
3000002    2    3    0    0    0  -6.0742726258E+01   5.9907713745E+00   3.4646105841E+01   7.0893728812E+01   1.0000000000E+01  4.687E-11   1.
3000002    2    3    0    0    0   6.0742726258E+01  -5.9907713745E+00   1.5300471410E+01   6.3715559798E+01   1.0000000000E+01  2.337E-09   1.
3000001    1    4    0    0    0  -1.4464987003E+01  -6.9003987688E-01   4.2544088419E+00   1.5126532935E+01   1.0000000000E+00     0.000  -1.
3000022   2   4   0   0   0   -4.6277739255E+01   6.6808112514E+00   3.0391696999E+01   5.5767195877E+01   2.5000000000E-01   1.246742E+01   0.
3000001    1    5    0    0    0   3.6670838410E+01  -6.6592266850E+00   5.3814050735E+00   3.7670349219E+01   1.0000000000E+00     0.000   1.
3000022   2   5   0   0   0   2.4071887848E+01   6.6845531045E-01   9.9190663365E+00   2.6045210578E+01   2.5000000000E-01   4.995662E-01   0.
13    1    7    0    0    0  -1.9343496822E+01   2.7829015494E+00   1.2778784879E+01   2.3350027373E+01   1.0500000000E-01     0.000  -1.
-13    1    7    0    0    0  -2.6934242433E+01   3.8979097020E+00   1.7612912120E+01   3.2417168504E+01   1.0500000000E-01     0.000   1.
13    1    9    0    0    0   1.3269470916E+01   3.6011269661E-01   5.5391308219E+00   1.4384072261E+01   1.0500000000E-01     0.000  -1.
-13    1    9    0    0    0   1.0802416932E+01   3.0834261385E-01   4.3799355145E+00   1.1661138317E+01   1.0500000000E-01     0.000   1.
</event>
<event>
 13   1  9.2978750E-05  1.2500000E+02  7.5467720E-03  1.2380620E-01
   21   -1    0    0  502  501   0.0000000000E+00   0.0000000000E+00   1.2152369168E+03   1.2152369168E+03   0.0000000000E+00     0.000  -1.
   21   -1    0    0  501  502   0.0000000000E+00   0.0000000000E+00  -3.2143937910E+00   3.2143937910E+00   0.0000000000E+00     0.000  -1.
   25    2    1    2    0    0   0.0000000000E+00   0.0000000000E+00   1.2120225230E+03   1.2184513106E+03   1.2500000000E+02  6.292E-09  -1.
3000002    2    3    0    0    0   4.0115375166E+01   4.2589042592E+01   7.9682061505E+02   7.9902826135E+02   1.0000000000E+01  7.567E-11   1.
3000002    2    3    0    0    0  -4.0115375166E+01  -4.2589042592E+01   4.1520190795E+02   4.1942304925E+02   1.0000000000E+01  4.910E-10   1.
3000001    1    4    0    0    0   2.2389551668E+01   1.6588444110E+01   3.7012196372E+02   3.7117076465E+02   1.0000000000E+00     0.000  -1.
3000022   2   4   0   0   0   1.7725823498E+01   2.6000598482E+01   4.2669865132E+02   4.2785749670E+02   2.5000000000E-01   9.507804E-01   0.
3000001    1    5    0    0    0  -3.0514397280E+00  -6.2051351235E+00   6.7981085464E+01   6.8339175933E+01   1.0000000000E+00     0.000   1.
3000022   2   5   0   0   0   -3.7063935438E+01   -3.6383907468E+01   3.4722082249E+02   3.5108387331E+02   2.5000000000E-01   2.405592E+00   0.
13    1    7    0    0    0   9.7566547126E+00   1.4357624816E+01   2.3454898683E+02   2.3519050140E+02   1.0500000000E-01     0.000  -1.
-13    1    7    0    0    0   7.9691687854E+00   1.1642973665E+01   1.9214966449E+02   1.9266699529E+02   1.0500000000E-01     0.000   1.
13    1    9    0    0    0  -2.0201426672E+01  -1.9922833359E+01   1.8959783699E+02   1.9170907059E+02   1.0500000000E-01     0.000   1.
-13    1    9    0    0    0  -1.6862508766E+01  -1.6461074109E+01   1.5762298550E+02   1.5937480273E+02   1.0500000000E-01     0.000  -1.
</event>
<event>
 13   1  9.2978750E-05  1.2500000E+02  7.5467720E-03  1.2380620E-01
   21   -1    0    0  502  501   0.0000000000E+00   0.0000000000E+00   1.1639228829E+01   1.1639228829E+01   0.0000000000E+00     0.000  -1.
   21   -1    0    0  501  502   0.0000000000E+00   0.0000000000E+00  -3.3561072279E+02   3.3561072279E+02   0.0000000000E+00     0.000  -1.
   25    2    1    2    0    0   0.0000000000E+00   0.0000000000E+00  -3.2397149396E+02   3.4724995162E+02   1.2500000000E+02  1.039E-08  -1.
3000002    2    3    0    0    0  -5.5946515763E+00   5.3087850259E+01  -7.6063784953E+01   9.3462930367E+01   1.0000000000E+01  5.123E-10  -1.
3000002    2    3    0    0    0   5.5946515763E+00  -5.3087850259E+01  -2.4790770901E+02   2.5378702125E+02   1.0000000000E+01  2.272E-10  -1.
3000001    1    4    0    0    0  -1.8020469126E+00   6.5482593594E+00  -5.2612962428E+00   8.6491798379E+00   1.0000000000E+00     0.000   1.
3000022   2   4   0   0   0   -3.7926046637E+00   4.6539590900E+01   -7.0802488710E+01   8.4813750529E+01   2.5000000000E-01   3.623202E+00   0.
3000001    1    5    0    0    0   5.0324384125E+00  -1.1413330656E+01  -6.4578667895E+01   6.5779889785E+01   1.0000000000E+00     0.000  -1.
3000022   2   5   0   0   0   5.6221316385E-01   -4.1674519603E+01   -1.8332904111E+02   1.8800713147E+02   2.5000000000E-01   1.395918E+01   0.
13    1    7    0    0    0  -1.7370867055E+00   2.1915996167E+01  -3.3420348482E+01   4.0003238318E+01   1.0500000000E-01     0.000   1.
-13    1    7    0    0    0  -2.0555179582E+00   2.4623594732E+01  -3.7382140228E+01   4.4810512211E+01   1.0500000000E-01     0.000  -1.
13    1    9    0    0    0   1.3938092305E-01  -9.8937210633E+00  -4.3597341109E+01   4.4706200021E+01   1.0500000000E-01     0.000   1.
-13    1    9    0    0    0   4.2283224080E-01  -3.1780798539E+01  -1.3973170000E+02   1.4330093145E+02   1.0500000000E-01     0.000  -1.
</event>
<event>
 13   1  9.2978750E-05  1.2500000E+02  7.5467720E-03  1.2380620E-01
   21   -1    0    0  502  501   0.0000000000E+00   0.0000000000E+00   1.7653392743E+01   1.7653392743E+01   0.0000000000E+00     0.000   1.
   21   -1    0    0  501  502   0.0000000000E+00   0.0000000000E+00  -2.2127474627E+02   2.2127474627E+02   0.0000000000E+00     0.000   1.
   25    2    1    2    0    0   0.0000000000E+00   0.0000000000E+00  -2.0362135353E+02   2.3892813901E+02   1.2500000000E+02  8.599E-09  -1.
3000002    2    3    0    0    0  -3.9727497263E+01   4.0643668131E+01  -5.5933758278E+01   8.0366455148E+01   1.0000000000E+01  1.724E-11   1.
3000002    2    3    0    0    0   3.9727497263E+01  -4.0643668131E+01  -1.4768759525E+02   1.5856168386E+02   1.0000000000E+01  2.499E-10   1.
3000001    1    4    0    0    0  -3.6541964731E+01   3.7366157080E+01  -5.4621781348E+01   7.5604787408E+01   1.0000000000E+00     0.000   1.
3000022   2   4   0   0   0   -3.1855325312E+00   3.2775110512E+00   -1.3119769296E+00   4.7616677396E+00   2.5000000000E-01   2.956083E+00   0.
3000001    1    5    0    0    0   3.8166805409E+01  -3.8429656451E+01  -1.4476691808E+02   1.5457038559E+02   1.0000000000E+00     0.000   1.
3000022   2   5   0   0   0   1.5606918541E+00   -2.2140116805E+00   -2.9206771737E+00   3.9912982773E+00   2.5000000000E-01   7.456145E-01   0.
13    1    7    0    0    0  -1.4756330196E+00   1.5662344799E+00  -5.5683572362E-01   2.2252357802E+00   1.0500000000E-01     0.000  -1.
-13    1    7    0    0    0  -1.7098995116E+00   1.7112765714E+00  -7.5514120594E-01   2.5364319593E+00   1.0500000000E-01     0.000   1.
13    1    9    0    0    0   1.1966984185E+00  -1.6592233413E+00  -2.1866832510E+00   2.9962840055E+00   1.0500000000E-01     0.000   1.
-13    1    9    0    0    0   3.6399343563E-01  -5.5478833918E-01  -7.3399392273E-01   9.9501427180E-01   1.0500000000E-01     0.000  -1.
</event>
<event>
 13   1  9.2978750E-05  1.2500000E+02  7.5467720E-03  1.2380620E-01
   21   -1    0    0  502  501   0.0000000000E+00   0.0000000000E+00   3.4411600426E+01   3.4411600426E+01   0.0000000000E+00     0.000  -1.
   21   -1    0    0  501  502   0.0000000000E+00   0.0000000000E+00  -1.1351549918E+02   1.1351549918E+02   0.0000000000E+00     0.000  -1.
   25    2    1    2    0    0   0.0000000000E+00   0.0000000000E+00  -7.9103898756E+01   1.4792709961E+02   1.2500000000E+02  3.934E-09  -1.
3000002    2    3    0    0    0   5.3311471755E+01   2.8316918007E+01  -2.4476077062E+01   6.5901739085E+01   1.0000000000E+01  1.363E-10   1.
3000002    2    3    0    0    0  -5.3311471755E+01  -2.8316918007E+01  -5.4627821694E+01   8.2025360525E+01   1.0000000000E+01  6.234E-10   1.
3000001    1    4    0    0    0   1.9526235897E+01   1.2679583651E+01  -1.4165272931E+01   2.7270876170E+01   1.0000000000E+00     0.000  -1.
3000022   2   4   0   0   0   3.3785235858E+01   1.5637334356E+01   -1.0310804131E+01   3.8630862915E+01   2.5000000000E-01   7.180829E+00   0.
3000001    1    5    0    0    0  -2.2184086734E+01  -6.8418314066E+00  -2.3452166212E+01   3.3014367498E+01   1.0000000000E+00     0.000   1.
3000022   2   5   0   0   0   -3.1127385021E+01   -2.1475086601E+01   -3.1175655482E+01   4.9010993027E+01   2.5000000000E-01   1.928909E+01   0.
13    1    7    0    0    0   1.8876117408E+01   8.6969817352E+00  -5.6984345068E+00   2.1550602788E+01   1.0500000000E-01     0.000  -1.
-13    1    7    0    0    0   1.4909118451E+01   6.9403526210E+00  -4.6123696242E+00   1.7080260128E+01   1.0500000000E-01     0.000   1.
13    1    9    0    0    0  -2.2326120544E+01  -1.5391185332E+01  -2.2406105756E+01   3.5176538269E+01   1.0500000000E-01     0.000   1.
-13    1    9    0    0    0  -8.8012644773E+00  -6.0839012692E+00  -8.7695497264E+00   1.3834454758E+01   1.0500000000E-01     0.000  -1.
</event>
<event>
 13   1  9.2978750E-05  1.2500000E+02  7.5467720E-03  1.2380620E-01
   21   -1    0    0  502  501   0.0000000000E+00   0.0000000000E+00   6.6046201819E+01   6.6046201819E+01   0.0000000000E+00     0.000   1.
   21   -1    0    0  501  502   0.0000000000E+00   0.0000000000E+00  -5.9144203489E+01   5.9144203489E+01   0.0000000000E+00     0.000   1.
   25    2    1    2    0    0   0.0000000000E+00   0.0000000000E+00   6.9019983301E+00   1.2519040531E+02   1.2500000000E+02  1.122E-08  -1.
3000002    2    3    0    0    0  -2.4787977127E+01  -5.6089668174E+01  -3.3235719112E+00   6.2221706953E+01   1.0000000000E+01  2.283E-10   1.
3000002    2    3    0    0    0   2.4787977127E+01   5.6089668174E+01   1.0225570241E+01   6.2968698357E+01   1.0000000000E+01  2.436E-10   1.
3000001    1    4    0    0    0  -1.9885911256E+01  -3.3686857574E+01  -6.9574365574E-01   3.9137423254E+01   1.0000000000E+00     0.000   1.
3000022   2   4   0   0   0   -4.9020658708E+00   -2.2402810600E+01   -2.6278282555E+00   2.3084283700E+01   2.5000000000E-01   4.318532E+00   0.
3000001    1    5    0    0    0   9.5406914579E+00   1.6373870275E+01  -8.8953129405E-01   1.8997886388E+01   1.0000000000E+00     0.000   1.
3000022   2   5   0   0   0   1.5247285669E+01   3.9715797899E+01   1.1115101535E+01   4.3970811969E+01   2.5000000000E-01   3.595407E+00   0.
13    1    7    0    0    0  -3.0471887392E+00  -1.3705427243E+01  -1.5686150531E+00   1.4127833284E+01   1.0500000000E-01     0.000  -1.
-13    1    7    0    0    0  -1.8548771316E+00  -8.6973833572E+00  -1.0592132023E+00   8.9564504154E+00   1.0500000000E-01     0.000   1.
13    1    9    0    0    0   7.1946265924E+00   1.8637775525E+01   5.1614118470E+00   2.0634449970E+01   1.0500000000E-01     0.000  -1.
-13    1    9    0    0    0   8.0526590765E+00   2.1078022374E+01   5.9536896883E+00   2.3336361998E+01   1.0500000000E-01     0.000   1.
</event>
<event>
 13   1  9.2978750E-05  1.2500000E+02  7.5467720E-03  1.2380620E-01
   21   -1    0    0  502  501   0.0000000000E+00   0.0000000000E+00   5.1726561854E+01   5.1726561854E+01   0.0000000000E+00     0.000  -1.
   21   -1    0    0  501  502   0.0000000000E+00   0.0000000000E+00  -7.5517294403E+01   7.5517294403E+01   0.0000000000E+00     0.000  -1.
   25    2    1    2    0    0   0.0000000000E+00   0.0000000000E+00  -2.3790732549E+01   1.2724385626E+02   1.2500000000E+02  6.571E-08  -1.
3000002    2    3    0    0    0  -6.4981927317E+00  -1.5014109949E+01  -7.2449325711E+01   7.4943677534E+01   1.0000000000E+01  4.376E-10  -1.
3000002    2    3    0    0    0   6.4981927317E+00   1.5014109949E+01   4.8658593162E+01   5.2300178726E+01   1.0000000000E+01  4.521E-10  -1.
3000001    1    4    0    0    0  -4.3585621061E+00  -1.2902319939E+01  -6.9099068093E+01   7.0435418184E+01   1.0000000000E+00     0.000  -1.
3000022   2   4   0   0   0   -2.1396306256E+00   -2.1117900096E+00   -3.3502576180E+00   4.5082593498E+00   2.5000000000E-01   6.805751E+00   1.
3000001    1    5    0    0    0   1.2493064688E+00   4.2122176633E+00   3.9052378779E+00   5.9627533220E+00   1.0000000000E+00     0.000   1.
3000022   2   5   0   0   0   5.2488862629E+00   1.0801892286E+01   4.4753355284E+01   4.6337425404E+01   2.5000000000E-01   1.120815E+00   0.
13    1    7    0    0    0  -1.2410616017E+00  -1.3111728408E+00  -2.0300341258E+00   2.7187261115E+00   1.0500000000E-01     0.000   1.
-13    1    7    0    0    0  -8.9856902391E-01  -8.0061716873E-01  -1.3202234922E+00   1.7895332383E+00   1.0500000000E-01     0.000   1.
13    1    9    0    0    0   3.3312332855E+00   6.8316292963E+00   2.8544991241E+01   2.9539732971E+01   1.0500000000E-01     0.000  -1.
-13    1    9    0    0    0   1.9176529775E+00   3.9702629894E+00   1.6208364043E+01   1.6797692433E+01   1.0500000000E-01     0.000   1.
</event>
<event>
 13   1  9.2978750E-05  1.2500000E+02  7.5467720E-03  1.2380620E-01
   21   -1    0    0  502  501   0.0000000000E+00   0.0000000000E+00   8.8584810505E+01   8.8584810505E+01   0.0000000000E+00     0.000   1.
   21   -1    0    0  501  502   0.0000000000E+00   0.0000000000E+00  -4.4096160253E+01   4.4096160253E+01   0.0000000000E+00     0.000   1.
   25    2    1    2    0    0   0.0000000000E+00   0.0000000000E+00   4.4488650252E+01   1.3268097076E+02   1.2500000000E+02  3.436E-08  -1.
3000002    2    3    0    0    0  -1.7275039000E+01  -3.4241251734E+01   7.3539382371E+01   8.3539996722E+01   1.0000000000E+01  1.553E-10   1.
3000002    2    3    0    0    0   1.7275039000E+01   3.4241251734E+01  -2.9050732119E+01   4.9140974038E+01   1.0000000000E+01  1.341E-09   1.
3000001    1    4    0    0    0   1.4466141864E-01  -8.1128028199E+00   1.7033962588E+01   1.8894294852E+01   1.0000000000E+00     0.000  -1.
3000022   2   4   0   0   0   -1.7419700418E+01   -2.6128448914E+01   5.6505419784E+01   6.4645701870E+01   2.5000000000E-01   5.761022E-01   0.
3000001    1    5    0    0    0   1.1704335100E+01   1.2945352047E+01  -1.0820646824E+01   2.0558696395E+01   1.0000000000E+00     0.000   1.
3000022   2   5   0   0   0   5.5707038993E+00   2.1295899687E+01   -1.8230085295E+01   2.8582277643E+01   2.5000000000E-01   2.481626E+00   0.
13    1    7    0    0    0  -7.3840394807E+00  -1.1139653154E+01   2.3935682259E+01   2.7414299584E+01   1.0500000000E-01     0.000  -1.
-13    1    7    0    0    0  -1.0035660938E+01  -1.4988795760E+01   3.2569737524E+01   3.7231402286E+01   1.0500000000E-01     0.000   1.
13    1    9    0    0    0   3.3823717808E+00   1.3100195269E+01  -1.1147641581E+01   1.7531015166E+01   1.0500000000E-01     0.000   1.
-13    1    9    0    0    0   2.1883321185E+00   8.1957044188E+00  -7.0824437136E+00   1.1051262477E+01   1.0500000000E-01     0.000  -1.
</event>
<event>
 13   1  9.2978750E-05  1.2500000E+02  7.5467720E-03  1.2380620E-01
   21   -1    0    0  502  501   0.0000000000E+00   0.0000000000E+00   2.4657803555E+01   2.4657803555E+01   0.0000000000E+00     0.000  -1.
   21   -1    0    0  501  502   0.0000000000E+00   0.0000000000E+00  -1.5841840865E+02   1.5841840865E+02   0.0000000000E+00     0.000  -1.
   25    2    1    2    0    0   0.0000000000E+00   0.0000000000E+00  -1.3376060510E+02   1.8307621221E+02   1.2500000000E+02  6.250E-08  -1.
3000002    2    3    0    0    0   3.8500666559E+01  -4.8074903582E+01  -7.2110481029E+01   9.5359420899E+01   1.0000000000E+01  1.790E-09  -1.
3000002    2    3    0    0    0  -3.8500666559E+01   4.8074903582E+01  -6.1650124071E+01   8.7716791311E+01   1.0000000000E+01  4.359E-10  -1.
3000001    1    4    0    0    0   2.7820804554E+01  -3.0896083554E+01  -5.4377764577E+01   6.8458063261E+01   1.0000000000E+00     0.000  -1.
3000022   2   4   0   0   0   1.0679862005E+01   -1.7178820029E+01   -1.7732716452E+01   2.6901357638E+01   2.5000000000E-01   1.284046E+00   0.
3000001    1    5    0    0    0  -1.3723335902E+01   2.1804085610E+01  -3.1240612304E+01   4.0505850870E+01   1.0000000000E+00     0.000   1.
3000022   2   5   0   0   0   -2.4777330657E+01   2.6270817972E+01   -3.0409511767E+01   4.7210940441E+01   2.5000000000E-01   1.873795E+00   0.
13    1    7    0    0    0   3.6472097749E+00  -5.9375696194E+00  -6.0544248302E+00   9.2316822493E+00   1.0500000000E-01     0.000  -1.
-13    1    7    0    0    0   7.0326522296E+00  -1.1241250409E+01  -1.1678291622E+01   1.7669675389E+01   1.0500000000E-01     0.000   1.
13    1    9    0    0    0  -1.1615252902E+01   1.2218067576E+01  -1.4184776234E+01   2.2032116945E+01   1.0500000000E-01     0.000   1.
-13    1    9    0    0    0  -1.3162077755E+01   1.4052750397E+01  -1.6224735532E+01   2.5178823496E+01   1.0500000000E-01     0.000  -1.
</event>
<event>
 13   1  9.2978750E-05  1.2500000E+02  7.5467720E-03  1.2380620E-01
   21   -1    0    0  502  501   0.0000000000E+00   0.0000000000E+00   3.4198579772E+01   3.4198579772E+01   0.0000000000E+00     0.000  -1.
   21   -1    0    0  501  502   0.0000000000E+00   0.0000000000E+00  -1.1422257960E+02   1.1422257960E+02   0.0000000000E+00     0.000  -1.
   25    2    1    2    0    0   0.0000000000E+00   0.0000000000E+00  -8.0023999824E+01   1.4842115937E+02   1.2500000000E+02  6.639E-08  -1.
3000002    2    3    0    0    0   3.3824126619E+01  -3.7693437997E+01  -8.1846900071E+01   9.6766636094E+01   1.0000000000E+01  6.552E-11   1.
3000002    2    3    0    0    0  -3.3824126619E+01   3.7693437997E+01   1.8229002474E+00   5.1654523276E+01   1.0000000000E+01  1.390E-11   1.
3000001    1    4    0    0    0   1.3545725466E+01  -1.8003785289E+01  -4.4917630835E+01   5.0261481504E+01   1.0000000000E+00     0.000  -1.
3000022   2   4   0   0   0   2.0278401153E+01   -1.9689652708E+01   -3.6929269236E+01   4.6505154589E+01   2.5000000000E-01   5.702382E+00   0.
3000001    1    5    0    0    0  -5.0658232068E+00   1.1973393299E+01   5.3889964385E-01   1.3050483695E+01   1.0000000000E+00     0.000   1.
3000022   2   5   0   0   0   -2.8758303412E+01   2.5720044699E+01   1.2840006036E+00   3.8604039581E+01   2.5000000000E-01   6.310769E+00   0.
13    1    7    0    0    0   1.3598770875E+01  -1.3143560096E+01  -2.4759762558E+01   3.1156646293E+01   1.0500000000E-01     0.000   1.
-13    1    7    0    0    0   6.6796302772E+00  -6.5460926121E+00  -1.2169506678E+01   1.5348508296E+01   1.0500000000E-01     0.000  -1.
13    1    9    0    0    0  -1.0525728758E+01   9.3351722207E+00   4.6288667120E-01   1.4076991701E+01   1.0500000000E-01     0.000   1.
-13    1    9    0    0    0  -1.8232574654E+01   1.6384872478E+01   8.2111393239E-01   2.4527047881E+01   1.0500000000E-01     0.000  -1.
</event>
<event>
 13   1  9.2978750E-05  1.2500000E+02  7.5467720E-03  1.2380620E-01
   21   -1    0    0  502  501   0.0000000000E+00   0.0000000000E+00   1.7363779038E+01   1.7363779038E+01   0.0000000000E+00     0.000   1.
   21   -1    0    0  501  502   0.0000000000E+00   0.0000000000E+00  -2.2496542897E+02   2.2496542897E+02   0.0000000000E+00     0.000   1.
   25    2    1    2    0    0   0.0000000000E+00   0.0000000000E+00  -2.0760164994E+02   2.4232920801E+02   1.2500000000E+02  1.561E-09  -1.
3000002    2    3    0    0    0   3.2953551663E+01  -5.0381755069E+01  -7.7647788261E+01   9.8759489837E+01   1.0000000000E+01  8.939E-10   1.
3000002    2    3    0    0    0  -3.2953551663E+01   5.0381755069E+01  -1.2995386168E+02   1.4356971817E+02   1.0000000000E+01  7.029E-10   1.
3000001    1    4    0    0    0   3.2397245194E+01  -5.0784661890E+01  -7.6218396632E+01   9.7154039364E+01   1.0000000000E+00     0.000   1.
3000022   2   4   0   0   0   5.5630646894E-01   4.0290682131E-01   -1.4293916290E+00   1.6054504736E+00   2.5000000000E-01   1.474278E+00   0.
3000001    1    5    0    0    0  -2.1532587814E+01   4.0547075954E+01  -9.5796393968E+01   1.0623401905E+02   1.0000000000E+00     0.000   1.
3000022   2   5   0   0   0   -1.1420963849E+01   9.8346791149E+00   -3.4157467711E+01   3.7335699123E+01   2.5000000000E-01   5.085802E+00   0.
13    1    7    0    0    0   3.4248197232E-01   1.7918714265E-01  -7.0688351499E-01   8.1247229935E-01   1.0500000000E-01     0.000   1.
-13    1    7    0    0    0   2.1382449662E-01   2.2371967866E-01  -7.2250811403E-01   7.9297817424E-01   1.0500000000E-01     0.000  -1.
13    1    9    0    0    0  -5.6085459419E+00   4.9189991206E+00  -1.6900514529E+01   1.8474056303E+01   1.0500000000E-01     0.000   1.
-13    1    9    0    0    0  -5.8124179073E+00   4.9156799944E+00  -1.7256953182E+01   1.8861642820E+01   1.0500000000E-01     0.000  -1.
</event>
<event>
 13   1  9.2978750E-05  1.2500000E+02  7.5467720E-03  1.2380620E-01
   21   -1    0    0  502  501   0.0000000000E+00   0.0000000000E+00   4.0585535435E+02   4.0585535435E+02   0.0000000000E+00     0.000  -1.
   21   -1    0    0  501  502   0.0000000000E+00   0.0000000000E+00  -9.6247344235E+00   9.6247344235E+00   0.0000000000E+00     0.000  -1.
   25    2    1    2    0    0   0.0000000000E+00   0.0000000000E+00   3.9623061993E+02   4.1548008878E+02   1.2500000000E+02  1.319E-08  -1.
3000002    2    3    0    0    0   2.0658395762E+01  -4.9402272912E+01   2.9996248187E+02   3.0486856908E+02   1.0000000000E+01  7.151E-10   1.
3000002    2    3    0    0    0  -2.0658395762E+01   4.9402272912E+01   9.6268138057E+01   1.1061151970E+02   1.0000000000E+01  2.373E-11   1.
3000001    1    4    0    0    0   2.1269869039E+01  -4.7076108449E+01   2.9237038523E+02   2.9690067274E+02   1.0000000000E+00     0.000   1.
3000022   2   4   0   0   0   -6.1147327732E-01   -2.3261644635E+00   7.5920966474E+00   7.9678963462E+00   2.5000000000E-01   5.184045E+00   -1.
3000001    1    5    0    0    0  -9.1356921047E+00   2.9618153444E+01   4.7368454852E+01   5.6616838474E+01   1.0000000000E+00     0.000   1.
3000022   2   5   0   0   0   -1.1522703657E+01   1.9784119468E+01   4.8899683204E+01   5.3994681221E+01   2.5000000000E-01   2.202064E+00   0.
13    1    7    0    0    0  -2.6522448944E-01  -9.9521856501E-01   3.0416077665E+00   3.2129747630E+00   1.0500000000E-01     0.000  -1.
-13    1    7    0    0    0  -3.4624878788E-01  -1.3309458985E+00   4.5504888809E+00   4.7549215832E+00   1.0500000000E-01     0.000  -1.
13    1    9    0    0    0  -4.0378878311E+00   7.0156413526E+00   1.7381516059E+01   1.9174250630E+01   1.0500000000E-01     0.000   1.
-13    1    9    0    0    0  -7.4848158258E+00   1.2768478116E+01   3.1518167145E+01   3.4820430591E+01   1.0500000000E-01     0.000  -1.
</event>
<event>
 13   1  9.2978750E-05  1.2500000E+02  7.5467720E-03  1.2380620E-01
   21   -1    0    0  502  501   0.0000000000E+00   0.0000000000E+00   1.7133074745E+01   1.7133074745E+01   0.0000000000E+00     0.000   1.
   21   -1    0    0  501  502   0.0000000000E+00   0.0000000000E+00  -2.2799468619E+02   2.2799468619E+02   0.0000000000E+00     0.000   1.
   25    2    1    2    0    0   0.0000000000E+00   0.0000000000E+00  -2.1086161145E+02   2.4512776094E+02   1.2500000000E+02  5.193E-09  -1.
3000002    2    3    0    0    0   4.3703435274E+01   1.2178472775E+01  -2.3443557452E+01   5.2037542600E+01   1.0000000000E+01  7.980E-12  -1.
3000002    2    3    0    0    0  -4.3703435274E+01  -1.2178472775E+01  -1.8741805400E+02   1.9309021834E+02   1.0000000000E+01  1.105E-09  -1.
3000001    1    4    0    0    0   4.3374567040E+00  -1.0061568780E+00  -4.6646611955E-01   4.5873165318E+00   1.0000000000E+00     0.000   1.
3000022   2   4   0   0   0   3.9365978570E+01   1.3184629653E+01   -2.2977091332E+01   4.7450226069E+01   2.5000000000E-01   1.385114E+01   0.
3000001    1    5    0    0    0  -3.2393873960E+00  -3.8551422539E+00  -1.9387743182E+01   2.0055930250E+01   1.0000000000E+00     0.000  -1.
3000022   2   5   0   0   0   -4.0464047878E+01   -8.3233305215E+00   -1.6803031082E+02   1.7303428809E+02   2.5000000000E-01   3.054376E+00   0.
13    1    7    0    0    0   2.6288227738E+01   8.8591233357E+00  -1.5339062839E+01   3.1699414154E+01   1.0500000000E-01     0.000   1.
-13    1    7    0    0    0   1.3077750832E+01   4.3255063176E+00  -7.6380284932E+00   1.5750811915E+01   1.0500000000E-01     0.000  -1.
13    1    9    0    0    0  -1.4170699831E+01  -2.9720867728E+00  -5.8925777380E+01   6.0678664276E+01   1.0500000000E-01     0.000   1.
-13    1    9    0    0    0  -2.6293348048E+01  -5.3512437487E+00  -1.0910453344E+02   1.1235562381E+02   1.0500000000E-01     0.000  -1.
</event>
<event>
 13   1  9.2978750E-05  1.2500000E+02  7.5467720E-03  1.2380620E-01
   21   -1    0    0  502  501   0.0000000000E+00   0.0000000000E+00   9.4313907738E+01   9.4313907738E+01   0.0000000000E+00     0.000  -1.
   21   -1    0    0  501  502   0.0000000000E+00   0.0000000000E+00  -4.1417539509E+01   4.1417539509E+01   0.0000000000E+00     0.000  -1.
   25    2    1    2    0    0   0.0000000000E+00   0.0000000000E+00   5.2896368229E+01   1.3573144725E+02   1.2500000000E+02  4.020E-08  -1.
3000002    2    3    0    0    0   4.1634578973E+01   1.8598058136E+01  -1.8675763657E+01   5.0280315044E+01   1.0000000000E+01  9.272E-10   1.
3000002    2    3    0    0    0  -4.1634578973E+01  -1.8598058136E+01   7.1572131886E+01   8.5451132206E+01   1.0000000000E+01  9.630E-10   1.
3000001    1    4    0    0    0   4.0446466665E+01   1.5684952307E+01  -1.6396281762E+01   4.6387201362E+01   1.0000000000E+00     0.000   1.
3000022   2   4   0   0   0   1.1881123078E+00   2.9131058290E+00   -2.2794818951E+00   3.8931136815E+00   2.5000000000E-01   4.294587E+00   0.
3000001    1    5    0    0    0  -3.3778249792E+01  -1.4818516356E+01   6.4119983161E+01   7.3979259435E+01   1.0000000000E+00     0.000   1.
3000022   2   5   0   0   0   -7.8563291806E+00   -3.7795417801E+00   7.4521487247E+00   1.1471872771E+01   2.5000000000E-01   6.637961E-01   0.
13    1    7    0    0    0   8.5306407990E-01   1.9743385683E+00  -1.5842359005E+00   2.6733049760E+00   1.0500000000E-01     0.000   1.
-13    1    7    0    0    0   3.3504822789E-01   9.3876726076E-01  -6.9524599461E-01   1.2198087055E+00   1.0500000000E-01     0.000  -1.
13    1    9    0    0    0  -4.9253703109E+00  -2.3239252758E+00   4.5963568151E+00   7.1272310442E+00   1.0500000000E-01     0.000   1.
-13    1    9    0    0    0  -2.9309588697E+00  -1.4556165043E+00   2.8557919097E+00   4.3446417269E+00   1.0500000000E-01     0.000  -1.
</event>
<event>
 13   1  9.2978750E-05  1.2500000E+02  7.5467720E-03  1.2380620E-01
   21   -1    0    0  502  501   0.0000000000E+00   0.0000000000E+00   3.6535453073E+02   3.6535453073E+02   0.0000000000E+00     0.000   1.
   21   -1    0    0  501  502   0.0000000000E+00   0.0000000000E+00  -1.0691669793E+01   1.0691669793E+01   0.0000000000E+00     0.000   1.
   25    2    1    2    0    0   0.0000000000E+00   0.0000000000E+00   3.5466286093E+02   3.7604620052E+02   1.2500000000E+02  8.599E-09  -1.
3000002    2    3    0    0    0  -3.5089491715E+01  -3.5204429971E+01   2.8727594669E+02   2.9171577583E+02   1.0000000000E+01  1.051E-09   1.
3000002    2    3    0    0    0   3.5089491715E+01   3.5204429971E+01   6.7386914237E+01   8.4330424693E+01   1.0000000000E+01  1.923E-09   1.
3000001    1    4    0    0    0  -3.8377690656E-01  -3.6174512769E+00   2.1221603394E+01   2.1554342697E+01   1.0000000000E+00     0.000  -1.
3000022   2   4   0   0   0   -3.4705714808E+01   -3.1586978694E+01   2.6605434330E+02   2.7016143313E+02   2.5000000000E-01   1.277534E+01   0.
3000001    1    5    0    0    0   1.6248417144E+00   1.5214453308E+00   8.3973348787E-01   2.5807089766E+00   1.0000000000E+00     0.000  -1.
3000022   2   5   0   0   0   3.3464650000E+01   3.3682984640E+01   6.6547180750E+01   8.1749715716E+01   2.5000000000E-01   7.632977E-01   0.
13    1    7    0    0    0  -2.2521313704E+01  -2.0571945353E+01   1.7285820300E+02   1.7552886907E+02   1.0500000000E-01     0.000   1.
-13    1    7    0    0    0  -1.2184401104E+01  -1.1015033342E+01   9.3196140296E+01   9.4632564062E+01   1.0500000000E-01     0.000  -1.
13    1    9    0    0    0   1.8436487542E+01   1.8638669117E+01   3.6800847830E+01   4.5184261478E+01   1.0500000000E-01     0.000  -1.
-13    1    9    0    0    0   1.5028162458E+01   1.5044315523E+01   2.9746332920E+01   3.6565454238E+01   1.0500000000E-01     0.000   1.
</event>
<event>
 13   1  9.2978750E-05  1.2500000E+02  7.5467720E-03  1.2380620E-01
   21   -1    0    0  502  501   0.0000000000E+00   0.0000000000E+00   1.0037480270E+02   1.0037480270E+02   0.0000000000E+00     0.000  -1.
   21   -1    0    0  501  502   0.0000000000E+00   0.0000000000E+00  -3.8916639384E+01   3.8916639384E+01   0.0000000000E+00     0.000  -1.
   25    2    1    2    0    0   0.0000000000E+00   0.0000000000E+00   6.1458163318E+01   1.3929144209E+02   1.2500000000E+02  9.443E-08  -1.
3000002    2    3    0    0    0   4.4468098764E+00   6.7357006085E+00   9.8886705478E+01   9.9718224518E+01   1.0000000000E+01  2.101E-09  -1.
3000002    2    3    0    0    0  -4.4468098764E+00  -6.7357006085E+00  -3.7428542160E+01   3.9573217572E+01   1.0000000000E+01  1.494E-10  -1.
3000001    1    4    0    0    0   7.5512756208E+00   5.7176840621E+00   6.9556668974E+01   7.0205725360E+01   1.0000000000E+00     0.000  -1.
3000022   2   4   0   0   0   -3.1044657445E+00   1.0180165464E+00   2.9330036504E+01   2.9512499158E+01   2.5000000000E-01   1.847285E+00   0.
3000001    1    5    0    0    0  -4.1587976448E+00   1.2575559347E+00  -1.8360631517E+01   1.8894174617E+01   1.0000000000E+00     0.000   1.
3000022   2   5   0   0   0   -2.8801223150E-01   -7.9932565432E+00   -1.9067910643E+01   2.0679042954E+01   2.5000000000E-01   1.108617E-01   0.
13    1    7    0    0    0  -9.6825412308E-01   2.8090752229E-01   9.3780739569E+00   9.4326942718E+00   1.0500000000E-01     0.000   1.
-13    1    7    0    0    0  -2.1362116214E+00   7.3710902411E-01   1.9951962547E+01   2.0079804886E+01   1.0500000000E-01     0.000  -1.
13    1    9    0    0    0  -1.4462583812E-01  -5.0678377893E+00  -1.2200318529E+01   1.3212217592E+01   1.0500000000E-01     0.000   1.
-13    1    9    0    0    0  -1.4338639338E-01  -2.9254187539E+00  -6.8675921141E+00   7.4668253622E+00   1.0500000000E-01     0.000  -1.
</event>
<event>
 13   1  9.2978750E-05  1.2500000E+02  7.5467720E-03  1.2380620E-01
   21   -1    0    0  502  501   0.0000000000E+00   0.0000000000E+00   4.5487523458E+02   4.5487523458E+02   0.0000000000E+00     0.000   1.
   21   -1    0    0  501  502   0.0000000000E+00   0.0000000000E+00  -8.5875196165E+00   8.5875196165E+00   0.0000000000E+00     0.000   1.
   25    2    1    2    0    0   0.0000000000E+00   0.0000000000E+00   4.4628771496E+02   4.6346275420E+02   1.2500000000E+02  2.796E-08  -1.
3000002    2    3    0    0    0  -2.8766040345E+01   4.1236651350E+01   3.5570670237E+02   3.5938169765E+02   1.0000000000E+01  4.886E-11  -1.
3000002    2    3    0    0    0   2.8766040345E+01  -4.1236651350E+01   9.0581012590E+01   1.0408105655E+02   1.0000000000E+01  2.158E-10  -1.
3000001    1    4    0    0    0   8.6807470852E-02   2.5985500419E+00   1.2710902324E+01   1.3012572219E+01   1.0000000000E+00     0.000   1.
3000022   2   4   0   0   0   -2.8852847816E+01   3.8638101308E+01   3.4299580005E+02   3.4636912543E+02   2.5000000000E-01   6.556772E+00   0.
3000001    1    5    0    0    0   1.4012461252E+01  -1.1888494881E+01   3.3578205709E+01   3.8290746657E+01   1.0000000000E+00     0.000   1.
3000022   2   5   0   0   0   1.4753579094E+01   -2.9348156469E+01   5.7002806881E+01   6.5790309898E+01   2.5000000000E-01   4.965261E+00   0.
13    1    7    0    0    0  -1.6652049925E+01   2.2209324412E+01   1.9770327220E+02   1.9964252984E+02   1.0500000000E-01     0.000   1.
-13    1    7    0    0    0  -1.2200797891E+01   1.6428776895E+01   1.4529252785E+02   1.4672659559E+02   1.0500000000E-01     0.000  -1.
13    1    9    0    0    0   1.0240737573E+01  -2.0471672524E+01   3.9745523832E+01   4.5865888977E+01   1.0500000000E-01     0.000  -1.
-13    1    9    0    0    0   4.5128415208E+00  -8.8764839445E+00   1.7257283049E+01   1.9924420921E+01   1.0500000000E-01     0.000   1.
</event>
<event>
 13   1  9.2978750E-05  1.2500000E+02  7.5467720E-03  1.2380620E-01
   21   -1    0    0  502  501   0.0000000000E+00   0.0000000000E+00   1.6621646414E+02   1.6621646414E+02   0.0000000000E+00     0.000  -1.
   21   -1    0    0  501  502   0.0000000000E+00   0.0000000000E+00  -2.3500981207E+01   2.3500981207E+01   0.0000000000E+00     0.000  -1.
   25    2    1    2    0    0   0.0000000000E+00   0.0000000000E+00   1.4271548293E+02   1.8971744534E+02   1.2500000000E+02  8.339E-08  -1.
3000002    2    3    0    0    0  -5.3105897769E+01  -8.3002010457E+00   1.1732095707E+02   1.2943468115E+02   1.0000000000E+01  7.116E-11   1.
3000002    2    3    0    0    0   5.3105897769E+01   8.3002010457E+00   2.5394525859E+01   6.0282764194E+01   1.0000000000E+01  7.942E-10   1.
3000001    1    4    0    0    0  -2.1160069441E+01   1.4415078592E+00   4.8064558803E+01   5.2545487880E+01   1.0000000000E+00     0.000   1.
3000022   2   4   0   0   0   -3.1945828328E+01   -9.7417089050E+00   6.9256398268E+01   7.6889193265E+01   2.5000000000E-01   7.351616E+00   0.
3000001    1    5    0    0    0   4.5967930427E+01   9.5325867207E+00   2.4546633743E+01   5.2985451451E+01   1.0000000000E+00     0.000   1.
3000022   2   5   0   0   0   7.1379673426E+00   -1.2323856750E+00   8.4789211563E-01   7.2973127434E+00   2.5000000000E-01   1.846570E+01   0.
13    1    7    0    0    0  -1.7441129665E+01  -5.2503142776E+00   3.7802911844E+01   4.1962244612E+01   1.0500000000E-01     0.000  -1.
-13    1    7    0    0    0  -1.4504698664E+01  -4.4913946273E+00   3.1453486424E+01   3.4926948653E+01   1.0500000000E-01     0.000   1.
13    1    9    0    0    0   4.3725093011E+00  -8.1103340626E-01   4.9313611330E-01   4.4755805211E+00   1.0500000000E-01     0.000   1.
-13    1    9    0    0    0   2.7654580414E+00  -4.2135226874E-01   3.5475600234E-01   2.8217322223E+00   1.0500000000E-01     0.000  -1.
</event>
<event>
 13   1  9.2978750E-05  1.2500000E+02  7.5467720E-03  1.2380620E-01
   21   -1    0    0  502  501   0.0000000000E+00   0.0000000000E+00   2.2992634468E+01   2.2992634468E+01   0.0000000000E+00     0.000   1.
   21   -1    0    0  501  502   0.0000000000E+00   0.0000000000E+00  -1.6989136262E+02   1.6989136262E+02   0.0000000000E+00     0.000   1.
   25    2    1    2    0    0   0.0000000000E+00   0.0000000000E+00  -1.4689872815E+02   1.9288399709E+02   1.2500000000E+02  6.118E-11  -1.
3000002    2    3    0    0    0  -3.8524177020E+01  -3.0043449328E+01  -1.5311602122E+01   5.2164798688E+01   1.0000000000E+01  1.178E-09  -1.
3000002    2    3    0    0    0   3.8524177020E+01   3.0043449328E+01  -1.3158712603E+02   1.4071919840E+02   1.0000000000E+01  4.355E-10  -1.
3000001    1    4    0    0    0  -3.7857848507E+01  -2.7899701126E+01  -1.6182134412E+01   4.9744059852E+01   1.0000000000E+00     0.000  -1.
3000022   2   4   0   0   0   -6.6632851339E-01   -2.1437482024E+00   8.7053228979E-01   2.4207388356E+00   2.5000000000E-01   1.533867E+01   0.
3000001    1    5    0    0    0   6.1931696139E+00   5.3149071905E+00  -1.3426424067E+01   1.5743965560E+01   1.0000000000E+00     0.000   1.
3000022   2   5   0   0   0   3.2331007406E+01   2.4728542137E+01   -1.1816070196E+02   1.2497523284E+02   2.5000000000E-01   1.757062E+00   0.
13    1    7    0    0    0  -2.2791992826E-01  -7.4203914196E-01   3.6256730992E-01   8.6316257803E-01   1.0500000000E-01     0.000   1.
-13    1    7    0    0    0  -4.3840858513E-01  -1.4017090604E+00   5.0796497987E-01   1.5575762576E+00   1.0500000000E-01     0.000  -1.
13    1    9    0    0    0   2.2939969737E+01   1.7553642911E+01  -8.3721325798E+01   8.8564349540E+01   1.0500000000E-01     0.000  -1.
-13    1    9    0    0    0   9.3910376689E+00   7.1748992267E+00  -3.4439376162E+01   3.6410883303E+01   1.0500000000E-01     0.000   1.
</event>
<event>
 13   1  9.2978750E-05  1.2500000E+02  7.5467720E-03  1.2380620E-01
   21   -1    0    0  502  501   0.0000000000E+00   0.0000000000E+00   5.5810178376E+01   5.5810178376E+01   0.0000000000E+00     0.000  -1.
   21   -1    0    0  501  502   0.0000000000E+00   0.0000000000E+00  -6.9991713226E+01   6.9991713226E+01   0.0000000000E+00     0.000  -1.
   25    2    1    2    0    0   0.0000000000E+00   0.0000000000E+00  -1.4181534851E+01   1.2580189160E+02   1.2500000000E+02  6.715E-08  -1.
3000002    2    3    0    0    0   5.1263680717E+01   1.1965729949E+01  -3.9470230578E+01   6.6551053754E+01   1.0000000000E+01  5.245E-10  -1.
3000002    2    3    0    0    0  -5.1263680717E+01  -1.1965729949E+01   2.5288695727E+01   5.9250837846E+01   1.0000000000E+01  8.314E-10  -1.
3000001    1    4    0    0    0   4.6641307909E+01   1.1565757777E+01  -3.1961557135E+01   5.7721048942E+01   1.0000000000E+00     0.000  -1.
3000022   2   4   0   0   0   4.6223728080E+00   3.9997217182E-01   -7.5086734424E+00   8.8300048119E+00   2.5000000000E-01   8.335438E-01   0.
3000001    1    5    0    0    0  -4.1825778784E+01  -1.3618220733E+01   2.0763548640E+01   4.8651584342E+01   1.0000000000E+00     0.000  -1.
3000022   2   5   0   0   0   -9.4379019334E+00   1.6524907842E+00   4.5251470867E+00   1.0599253504E+01   2.5000000000E-01   7.033833E+00   0.
13    1    7    0    0    0   2.2929929358E+00   1.4643522410E-01  -3.6344310006E+00   4.3010898126E+00   1.0500000000E-01     0.000  -1.
-13    1    7    0    0    0   2.3293798723E+00   2.5353694772E-01  -3.8742424418E+00   4.5289149993E+00   1.0500000000E-01     0.000   1.
13    1    9    0    0    0  -4.8217300712E+00   8.0008746954E-01   2.3657086885E+00   5.4310978114E+00   1.0500000000E-01     0.000  -1.
-13    1    9    0    0    0  -4.6161718622E+00   8.5240331467E-01   2.1594383982E+00   5.1681556931E+00   1.0500000000E-01     0.000   1.
</event>
<event>
 13   1  9.2978750E-05  1.2500000E+02  7.5467720E-03  1.2380620E-01
   21   -1    0    0  502  501   0.0000000000E+00   0.0000000000E+00   1.0123866213E+02   1.0123866213E+02   0.0000000000E+00     0.000  -1.
   21   -1    0    0  501  502   0.0000000000E+00   0.0000000000E+00  -3.8584567575E+01   3.8584567575E+01   0.0000000000E+00     0.000  -1.
   25    2    1    2    0    0   0.0000000000E+00   0.0000000000E+00   6.2654094550E+01   1.3982322970E+02   1.2500000000E+02  7.993E-09  -1.
3000002    2    3    0    0    0  -2.8606128100E+01  -5.3274134228E+01   4.5018010490E+01   7.6046467447E+01   1.0000000000E+01  6.427E-10  -1.
3000002    2    3    0    0    0   2.8606128100E+01   5.3274134228E+01   1.7636084060E+01   6.3776762253E+01   1.0000000000E+01  1.095E-10  -1.
3000001    1    4    0    0    0  -8.4696306315E+00  -1.8414322148E+01   2.0826702152E+01   2.9078745257E+01   1.0000000000E+00     0.000   1.
3000022   2   4   0   0   0   -2.0136497468E+01   -3.4859812080E+01   2.4191308338E+01   4.6967722189E+01   2.5000000000E-01   8.364130E+00   0.
3000001    1    5    0    0    0   9.8504191896E+00   1.2701464370E+01   1.1901152153E+00   1.6148508587E+01   1.0000000000E+00     0.000  -1.
3000022   2   5   0   0   0   1.8755708910E+01   4.0572669857E+01   1.6445968844E+01   4.7628253666E+01   2.5000000000E-01   1.581261E+01   0.
13    1    7    0    0    0  -1.1663500107E+01  -2.0202199328E+01   1.4092996322E+01   2.7254167806E+01   1.0500000000E-01     0.000   1.
-13    1    7    0    0    0  -8.4729973613E+00  -1.4657612751E+01   1.0098312016E+01   1.9713554383E+01   1.0500000000E-01     0.000  -1.
13    1    9    0    0    0   1.2611363883E+01   2.7355682073E+01   1.1038776402E+01   3.2081855465E+01   1.0500000000E-01     0.000   1.
-13    1    9    0    0    0   6.1443450277E+00   1.3216987785E+01   5.4071924424E+00   1.5546398201E+01   1.0500000000E-01     0.000  -1.
</event>
<event>
 13   1  9.2978750E-05  1.2500000E+02  7.5467720E-03  1.2380620E-01
   21   -1    0    0  502  501   0.0000000000E+00   0.0000000000E+00   1.7061219734E+02   1.7061219734E+02   0.0000000000E+00     0.000  -1.
   21   -1    0    0  501  502   0.0000000000E+00   0.0000000000E+00  -2.2895490833E+01   2.2895490833E+01   0.0000000000E+00     0.000  -1.
   25    2    1    2    0    0   0.0000000000E+00   0.0000000000E+00   1.4771670650E+02   1.9350768817E+02   1.2500000000E+02  3.481E-08  -1.
3000002    2    3    0    0    0  -2.6422779738E+01   3.5900353104E+01   1.3988732974E+02   1.4715795481E+02   1.0000000000E+01  2.223E-10   1.
3000002    2    3    0    0    0   2.6422779738E+01  -3.5900353104E+01   7.8293767600E+00   4.6349733360E+01   1.0000000000E+01  1.424E-09   1.
3000001    1    4    0    0    0  -1.8970164938E+01   2.8008407447E+01   9.1255914333E+01   9.7329234798E+01   1.0000000000E+00     0.000   1.
3000022   2   4   0   0   0   -7.4526147995E+00   7.8919456573E+00   4.8631415407E+01   4.9828720012E+01   2.5000000000E-01   1.537761E+01   0.
3000001    1    5    0    0    0   2.0520958923E+00  -4.2413595604E+00  -1.9830351344E+00   5.2089016900E+00   1.0000000000E+00     0.000  -1.
3000022   2   5   0   0   0   2.4370683845E+01   -3.1658993544E+01   9.8124118943E+00   4.1140831670E+01   2.5000000000E-01   4.954361E+00   0.
13    1    7    0    0    0  -1.8821671021E+00   2.0346081760E+00   1.2391196139E+01   1.2697832500E+01   1.0500000000E-01     0.000  -1.
-13    1    7    0    0    0  -5.5704476975E+00   5.8573374813E+00   3.6240219267E+01   3.7130887512E+01   1.0500000000E-01     0.000   1.
13    1    9    0    0    0   8.2606630809E+00  -1.0756880928E+01   3.2771624160E+00   1.3953489181E+01   1.0500000000E-01     0.000   1.
-13    1    9    0    0    0   1.6110020765E+01  -2.0902112616E+01   6.5352494783E+00   2.7187342489E+01   1.0500000000E-01     0.000  -1.
</event>
<event>
 13   1  9.2978750E-05  1.2500000E+02  7.5467720E-03  1.2380620E-01
   21   -1    0    0  502  501   0.0000000000E+00   0.0000000000E+00   1.3292558841E+02   1.3292558841E+02   0.0000000000E+00     0.000   1.
   21   -1    0    0  501  502   0.0000000000E+00   0.0000000000E+00  -2.9386742213E+01   2.9386742213E+01   0.0000000000E+00     0.000   1.
   25    2    1    2    0    0   0.0000000000E+00   0.0000000000E+00   1.0353884619E+02   1.6231233062E+02   1.2500000000E+02  1.780E-08  -1.
3000002    2    3    0    0    0  -2.6947308336E+01   3.6419947021E+01  -2.6077566533E+00   4.6469025838E+01   1.0000000000E+01  6.392E-10  -1.
3000002    2    3    0    0    0   2.6947308336E+01  -3.6419947021E+01   1.0614660284E+02   1.1584330478E+02   1.0000000000E+01  2.131E-11  -1.
3000001    1    4    0    0    0  -1.0557345415E+00   2.6295611032E-01  -1.3151003394E+00   1.9781835711E+00   1.0000000000E+00     0.000   1.
3000022   2   4   0   0   0   -2.5891573794E+01   3.6156990911E+01   -1.2926563138E+00   4.4490842267E+01   2.5000000000E-01   1.992836E+00   0.
3000001    1    5    0    0    0   1.3511645282E+01  -2.6178252413E+01   6.9226305766E+01   7.5240593217E+01   1.0000000000E+00     0.000   1.
3000022   2   5   0   0   0   1.3435663054E+01   -1.0241694609E+01   3.6920297077E+01   4.0602711565E+01   2.5000000000E-01   5.465034E+00   0.
13    1    7    0    0    0  -1.6361116935E+01   2.2754494062E+01  -8.3875260926E-01   2.8038681822E+01   1.0500000000E-01     0.000   1.
-13    1    7    0    0    0  -9.5304568593E+00   1.3402496849E+01  -4.5390370457E-01   1.6452160445E+01   1.0500000000E-01     0.000  -1.
13    1    9    0    0    0   7.0757740158E+00  -5.3154898657E+00   1.9403333730E+01   2.1326542037E+01   1.0500000000E-01     0.000  -1.
-13    1    9    0    0    0   6.3598890377E+00  -4.9262047430E+00   1.7516963347E+01   1.9276169527E+01   1.0500000000E-01     0.000   1.
</event>
<event>
 13   1  9.2978750E-05  1.2500000E+02  7.5467720E-03  1.2380620E-01
   21   -1    0    0  502  501   0.0000000000E+00   0.0000000000E+00   4.8025406677E+02   4.8025406677E+02   0.0000000000E+00     0.000  -1.
   21   -1    0    0  501  502   0.0000000000E+00   0.0000000000E+00  -8.1337156108E+00   8.1337156108E+00   0.0000000000E+00     0.000  -1.
   25    2    1    2    0    0   0.0000000000E+00   0.0000000000E+00   4.7212035115E+02   4.8838778238E+02   1.2500000000E+02  2.341E-09  -1.
3000002    2    3    0    0    0  -3.0691337131E+01   1.1829184513E+01   4.3999303209E+02   4.4133406402E+02   1.0000000000E+01  3.814E-10  -1.
3000002    2    3    0    0    0   3.0691337131E+01  -1.1829184513E+01   3.2127319064E+01   4.7053718358E+01   1.0000000000E+01  7.685E-11  -1.
3000001    1    4    0    0    0  -1.1489978815E+00   2.8962263174E+00   2.9084385681E+01   2.9267897318E+01   1.0000000000E+00     0.000   1.
3000022   2   4   0   0   0   -2.9542339250E+01   8.9329581959E+00   4.1090864641E+02   4.1206616670E+02   2.5000000000E-01   2.639919E+00   0.
3000001    1    5    0    0    0   2.5037512652E+01  -1.3462717983E+01   2.7478519048E+01   3.9549852393E+01   1.0000000000E+00     0.000  -1.
3000022   2   5   0   0   0   5.6538244790E+00   1.6335334693E+00   4.6488000159E+00   7.5038659651E+00   2.5000000000E-01   3.773797E-01   0.
13    1    7    0    0    0  -1.3638274438E+01   4.1889702644E+00   1.9028445925E+02   1.9081859568E+02   1.0500000000E-01     0.000   1.
-13    1    7    0    0    0  -1.5904064812E+01   4.7439879316E+00   2.2062418716E+02   2.2124757102E+02   1.0500000000E-01     0.000  -1.
13    1    9    0    0    0   3.7327773987E+00   1.0774081526E+00   2.9979024985E+00   4.9084498394E+00   1.0500000000E-01     0.000   1.
-13    1    9    0    0    0   1.9210470803E+00   5.5612531665E-01   1.6508975175E+00   2.5954161257E+00   1.0500000000E-01     0.000  -1.
</event>
<event>
 13   1  9.2978750E-05  1.2500000E+02  7.5467720E-03  1.2380620E-01
   21   -1    0    0  502  501   0.0000000000E+00   0.0000000000E+00   5.2565887339E+00   5.2565887339E+00   0.0000000000E+00     0.000   1.
   21   -1    0    0  501  502   0.0000000000E+00   0.0000000000E+00  -7.4311501198E+02   7.4311501198E+02   0.0000000000E+00     0.000   1.
   25    2    1    2    0    0   0.0000000000E+00   0.0000000000E+00  -7.3785842325E+02   7.4837160071E+02   1.2500000000E+02  3.790E-08  -1.
3000002    2    3    0    0    0   5.8435722653E+01   5.9284502294E+00  -2.5590858053E+02   2.6275289112E+02   1.0000000000E+01  7.898E-10  -1.
3000002    2    3    0    0    0  -5.8435722653E+01  -5.9284502294E+00  -4.8194984272E+02   4.8561870959E+02   1.0000000000E+01  2.452E-10  -1.
3000001    1    4    0    0    0   5.5739847226E+01   6.8022941164E+00  -2.4947165799E+02   2.5571529074E+02   1.0000000000E+00     0.000  -1.
3000022   2   4   0   0   0   2.6958754269E+00   -8.7384388703E-01   -6.4369225366E+00   7.0376003863E+00   2.5000000000E-01   7.686535E+00   0.
3000001    1    5    0    0    0  -4.6033388725E+00  -2.0973142641E+00  -2.7881962159E+01   2.8354775078E+01   1.0000000000E+00     0.000   1.
3000022   2   5   0   0   0   -5.3832383780E+01   -3.8311359653E+00   -4.5406788056E+02   4.5726393451E+02   2.5000000000E-01   2.775348E+00   0.
13    1    7    0    0    0   1.4207126278E+00  -3.9485097529E-01  -3.4094828024E+00   3.7161713690E+00   1.0500000000E-01     0.000  -1.
-13    1    7    0    0    0   1.2751627991E+00  -4.7899291173E-01  -3.0274397341E+00   3.3214290174E+00   1.0500000000E-01     0.000   1.
13    1    9    0    0    0  -1.7947431525E+01  -1.3116013201E+00  -1.5175468440E+02   1.5281795005E+02   1.0500000000E-01     0.000   1.
-13    1    9    0    0    0  -3.5884952256E+01  -2.5195346452E+00  -3.0231319616E+02   3.0444598446E+02   1.0500000000E-01     0.000  -1.
</event>
<event>
 13   1  9.2978750E-05  1.2500000E+02  7.5467720E-03  1.2380620E-01
   21   -1    0    0  502  501   0.0000000000E+00   0.0000000000E+00   1.6066735835E+02   1.6066735835E+02   0.0000000000E+00     0.000  -1.
   21   -1    0    0  501  502   0.0000000000E+00   0.0000000000E+00  -2.4312654668E+01   2.4312654668E+01   0.0000000000E+00     0.000  -1.
   25    2    1    2    0    0   0.0000000000E+00   0.0000000000E+00   1.3635470368E+02   1.8498001302E+02   1.2500000000E+02  1.011E-08  -1.
3000002    2    3    0    0    0  -3.6640485449E+01  -4.1475958183E+01   1.0852762091E+02   1.2223348469E+02   1.0000000000E+01  5.397E-10  -1.
3000002    2    3    0    0    0   3.6640485449E+01   4.1475958183E+01   2.7827082774E+01   6.2746528325E+01   1.0000000000E+01  1.632E-11  -1.
3000001    1    4    0    0    0  -3.1078377925E+01  -3.9025303010E+01   1.0000662406E+02   1.1176387925E+02   1.0000000000E+00     0.000  -1.
3000022   2   4   0   0   0   -5.5621075242E+00   -2.4506551727E+00   8.5209968443E+00   1.0469605442E+01   2.5000000000E-01   3.913039E+00   0.
3000001    1    5    0    0    0   5.6902840162E+00   4.0753808969E+00   6.9073020272E+00   9.8842745275E+00   1.0000000000E+00     0.000  -1.
3000022   2   5   0   0   0   3.0950201433E+01   3.7400577286E+01   2.0919780747E+01   5.2862253798E+01   2.5000000000E-01   2.556923E+00   0.
13    1    7    0    0    0  -2.7783683336E+00  -1.2975877330E+00   4.2822738792E+00   5.2680128225E+00   1.0500000000E-01     0.000   1.
-13    1    7    0    0    0  -2.7837391906E+00  -1.1530674397E+00   4.2387229651E+00   5.2015926192E+00   1.0500000000E-01     0.000  -1.
13    1    9    0    0    0   1.6451938748E+01   1.9810933424E+01   1.1041843081E+01   2.8019148726E+01   1.0500000000E-01     0.000   1.
-13    1    9    0    0    0   1.4498262685E+01   1.7589643862E+01   9.8779376663E+00   2.4843105072E+01   1.0500000000E-01     0.000  -1.
</event>
<event>
 13   1  9.2978750E-05  1.2500000E+02  7.5467720E-03  1.2380620E-01
   21   -1    0    0  502  501   0.0000000000E+00   0.0000000000E+00   2.6022347382E+01   2.6022347382E+01   0.0000000000E+00     0.000   1.
   21   -1    0    0  501  502   0.0000000000E+00   0.0000000000E+00  -1.5011136170E+02   1.5011136170E+02   0.0000000000E+00     0.000   1.
   25    2    1    2    0    0   0.0000000000E+00   0.0000000000E+00  -1.2408901431E+02   1.7613370908E+02   1.2500000000E+02  6.630E-08  -1.
3000002    2    3    0    0    0   4.2960084781E+01   4.4267138293E+01  -6.3523415160E+01   8.9108768877E+01   1.0000000000E+01  3.986E-10  -1.
3000002    2    3    0    0    0  -4.2960084781E+01  -4.4267138293E+01  -6.0565599150E+01   8.7024940203E+01   1.0000000000E+01  1.061E-10  -1.
3000001    1    4    0    0    0   1.0042178989E+01   5.1449190842E+00  -1.0405361910E+01   1.5381388354E+01   1.0000000000E+00     0.000   1.
3000022   2   4   0   0   0   3.2917905793E+01   3.9122219209E+01   -5.3118053251E+01   7.3727380523E+01   2.5000000000E-01   5.891740E-01   0.
3000001    1    5    0    0    0  -2.0247917940E+01  -1.3965094814E+01  -2.4360851526E+01   3.4633122024E+01   1.0000000000E+00     0.000  -1.
3000022   2   5   0   0   0   -2.2712166841E+01   -3.0302043479E+01   -3.6204747624E+01   5.2391818179E+01   2.5000000000E-01   6.360905E+00   0.
13    1    7    0    0    0   2.0817259356E+01   2.4653676549E+01  -3.3494417417E+01   4.6508591439E+01   1.0500000000E-01     0.000   1.
-13    1    7    0    0    0   1.2100646436E+01   1.4468542660E+01  -1.9623635834E+01   2.7218789084E+01   1.0500000000E-01     0.000  -1.
13    1    9    0    0    0  -6.7889819553E+00  -9.0696325650E+00  -1.0893848631E+01   1.5717362179E+01   1.0500000000E-01     0.000   1.
-13    1    9    0    0    0  -1.5923184886E+01  -2.1232410914E+01  -2.5310898992E+01   3.6674456001E+01   1.0500000000E-01     0.000  -1.
</event>
<event>
 13   1  9.2978750E-05  1.2500000E+02  7.5467720E-03  1.2380620E-01
   21   -1    0    0  502  501   0.0000000000E+00   0.0000000000E+00   1.6436447464E+02   1.6436447464E+02   0.0000000000E+00     0.000   1.
   21   -1    0    0  501  502   0.0000000000E+00   0.0000000000E+00  -2.3765780340E+01   2.3765780340E+01   0.0000000000E+00     0.000   1.
   25    2    1    2    0    0   0.0000000000E+00   0.0000000000E+00   1.4059869430E+02   1.8813025498E+02   1.2500000000E+02  4.459E-08  -1.
3000002    2    3    0    0    0   1.4613019503E+01  -5.9728138980E+01   6.2735245570E+01   8.8412114338E+01   1.0000000000E+01  2.282E-10   1.
3000002    2    3    0    0    0  -1.4613019503E+01   5.9728138980E+01   7.7863448730E+01   9.9718140642E+01   1.0000000000E+01  3.276E-10   1.
3000001    1    4    0    0    0   6.1162739438E+00  -3.9669403311E+01   3.6017232424E+01   5.3938032941E+01   1.0000000000E+00     0.000   1.
3000022   2   4   0   0   0   8.4967455594E+00   -2.0058735669E+01   2.6718013146E+01   3.4474081397E+01   2.5000000000E-01   5.464113E+00   0.
3000001    1    5    0    0    0  -2.7725092698E+00   1.9391498466E+01   3.1734055809E+01   3.7306397822E+01   1.0000000000E+00     0.000   1.
3000022   2   5   0   0   0   -1.1840510233E+01   4.0336640513E+01   4.6129392922E+01   6.2411742820E+01   2.5000000000E-01   1.164758E+00   0.
13    1    7    0    0    0   4.4393174527E+00  -1.0574031422E+01   1.3975645427E+01   1.8078920600E+01   1.0500000000E-01     0.000   1.
-13    1    7    0    0    0   4.0574281067E+00  -9.4847042462E+00   1.2742367719E+01   1.6395160797E+01   1.0500000000E-01     0.000  -1.
13    1    9    0    0    0  -6.9364785772E+00   2.3646916746E+01   2.6945984752E+01   3.6515592915E+01   1.0500000000E-01     0.000  -1.
-13    1    9    0    0    0  -4.9040316562E+00   1.6689723767E+01   1.9183408170E+01   2.5896149905E+01   1.0500000000E-01     0.000   1.
</event>
<event>
 13   1  9.2978750E-05  1.2500000E+02  7.5467720E-03  1.2380620E-01
   21   -1    0    0  502  501   0.0000000000E+00   0.0000000000E+00   7.5861206983E+02   7.5861206983E+02   0.0000000000E+00     0.000  -1.
   21   -1    0    0  501  502   0.0000000000E+00   0.0000000000E+00  -5.1492062351E+00   5.1492062351E+00   0.0000000000E+00     0.000  -1.
   25    2    1    2    0    0   0.0000000000E+00   0.0000000000E+00   7.5346286360E+02   7.6376127607E+02   1.2500000000E+02  1.982E-08  -1.
3000002    2    3    0    0    0  -3.0607167249E+01  -4.2828256975E+01   1.8014297368E+02   1.8794294148E+02   1.0000000000E+01  5.186E-10  -1.
3000002    2    3    0    0    0   3.0607167249E+01   4.2828256975E+01   5.7331988992E+02   5.7581833459E+02   1.0000000000E+01  1.301E-10  -1.
3000001    1    4    0    0    0  -5.9067287098E+00  -1.4284878438E+01   4.3223560677E+01   4.5915393863E+01   1.0000000000E+00     0.000   1.
3000022   2   4   0   0   0   -2.4700438539E+01   -2.8543378537E+01   1.3691941301E+02   1.4202754761E+02   2.5000000000E-01   5.674744E+00   0.
3000001    1    5    0    0    0   2.7109597648E+01   4.1223768629E+01   5.4634414535E+02   5.4856836815E+02   1.0000000000E+00     0.000  -1.
3000022   2   5   0   0   0   3.4975696011E+00   1.6044883465E+00   2.6975744570E+01   2.7249966442E+01   2.5000000000E-01   4.184706E+00   0.
13    1    7    0    0    0  -1.7161768180E+01  -1.9886886012E+01   9.5394011856E+01   9.8944646370E+01   1.0500000000E-01     0.000  -1.
-13    1    7    0    0    0  -7.5386703588E+00  -8.6564925253E+00   4.1525401153E+01   4.3082901243E+01   1.0500000000E-01     0.000   1.
13    1    9    0    0    0   1.7477544452E+00   8.7357449099E-01   1.3559194052E+01   1.3699654971E+01   1.0500000000E-01     0.000   1.
-13    1    9    0    0    0   1.7498151559E+00   7.3091385552E-01   1.3416550518E+01   1.3550311471E+01   1.0500000000E-01     0.000  -1.
</event>
<event>
 13   1  9.2978750E-05  1.2500000E+02  7.5467720E-03  1.2380620E-01
   21   -1    0    0  502  501   0.0000000000E+00   0.0000000000E+00   1.8782748155E+02   1.8782748155E+02   0.0000000000E+00     0.000  -1.
   21   -1    0    0  501  502   0.0000000000E+00   0.0000000000E+00  -2.0797009935E+01   2.0797009935E+01   0.0000000000E+00     0.000  -1.
   25    2    1    2    0    0   0.0000000000E+00   0.0000000000E+00   1.6703047162E+02   2.0862449149E+02   1.2500000000E+02  6.802E-08  -1.
3000002    2    3    0    0    0  -3.0288563789E+01   1.2930508985E+00  -6.1640782664E+00   3.2512535089E+01   1.0000000000E+01  7.395E-10   1.
3000002    2    3    0    0    0   3.0288563789E+01  -1.2930508985E+00   1.7319454989E+02   1.7611195640E+02   1.0000000000E+01  2.335E-09   1.
3000001    1    4    0    0    0  -6.6293034161E+00   4.2994655190E+00  -3.9695409338E-01   7.9743739619E+00   1.0000000000E+00     0.000  -1.
3000022   2   4   0   0   0   -2.3659260373E+01   -3.0064146205E+00   -5.7671241730E+00   2.4538161127E+01   2.5000000000E-01   5.447261E+00   0.
3000001    1    5    0    0    0   6.3341786423E+00   2.6519136600E+00   2.5146372308E+01   2.6086289606E+01   1.0000000000E+00     0.000  -1.
3000022   2   5   0   0   0   2.3954385147E+01   -3.9449645585E+00   1.4804817758E+02   1.5002566680E+02   2.5000000000E-01   6.604050E-01   0.
13    1    7    0    0    0  -9.7658772860E+00  -1.3041815208E+00  -2.3681177434E+00   1.0133718728E+01   1.0500000000E-01     0.000   1.
-13    1    7    0    0    0  -1.3893383087E+01  -1.7022330997E+00  -3.3990064296E+00   1.4404442400E+01   1.0500000000E-01     0.000  -1.
13    1    9    0    0    0   1.6725167239E+01  -2.7380389458E+00   1.0308083309E+02   1.0446481347E+02   1.0500000000E-01     0.000  -1.
-13    1    9    0    0    0   7.2292179075E+00  -1.2069256127E+00   4.4967344484E+01   4.5560853328E+01   1.0500000000E-01     0.000   1.
</event>
<event>
 13   1  9.2978750E-05  1.2500000E+02  7.5467720E-03  1.2380620E-01
   21   -1    0    0  502  501   0.0000000000E+00   0.0000000000E+00   6.6409182987E+01   6.6409182987E+01   0.0000000000E+00     0.000   1.
   21   -1    0    0  501  502   0.0000000000E+00   0.0000000000E+00  -5.8820931448E+01   5.8820931448E+01   0.0000000000E+00     0.000   1.
   25    2    1    2    0    0   0.0000000000E+00   0.0000000000E+00   7.5882515384E+00   1.2523011444E+02   1.2500000000E+02  3.605E-09  -1.
3000002    2    3    0    0    0   4.0224959479E+01  -4.0690626283E+01  -1.9323786279E+01   6.1214239753E+01   1.0000000000E+01  1.204E-09  -1.
3000002    2    3    0    0    0  -4.0224959479E+01   4.0690626283E+01   2.6912037817E+01   6.4015874687E+01   1.0000000000E+01  3.051E-10  -1.
3000001    1    4    0    0    0   2.2588001039E+01  -2.6937986365E+01  -7.6782783618E+00   3.5997622962E+01   1.0000000000E+00     0.000  -1.
3000022   2   4   0   0   0   1.7636958440E+01   -1.3752639919E+01   -1.1645507917E+01   2.5216616791E+01   2.5000000000E-01   9.797811E+00   0.
3000001    1    5    0    0    0  -1.0165712105E+01   1.4483399834E+01   1.2164244089E+01   2.1496032369E+01   1.0000000000E+00     0.000  -1.
3000022   2   5   0   0   0   -3.0059247374E+01   2.6207226450E+01   1.4747793728E+01   4.2519842317E+01   2.5000000000E-01   5.078265E+00   0.
13    1    7    0    0    0   8.5015015916E+00  -6.5820830794E+00  -5.6621807957E+00   1.2151981869E+01   1.0500000000E-01     0.000   1.
-13    1    7    0    0    0   9.1354568488E+00  -7.1705568395E+00  -5.9833271211E+00   1.3064634923E+01   1.0500000000E-01     0.000  -1.
13    1    9    0    0    0  -1.6082883841E+01   1.3950495824E+01   7.8302127495E+00   2.2684768967E+01   1.0500000000E-01     0.000  -1.
-13    1    9    0    0    0  -1.3976363533E+01   1.2256730626E+01   6.9175809782E+00   1.9835073351E+01   1.0500000000E-01     0.000   1.
</event>
<event>
 13   1  9.2978750E-05  1.2500000E+02  7.5467720E-03  1.2380620E-01
   21   -1    0    0  502  501   0.0000000000E+00   0.0000000000E+00   6.8877155909E+01   6.8877155909E+01   0.0000000000E+00     0.000   1.
   21   -1    0    0  501  502   0.0000000000E+00   0.0000000000E+00  -5.6713288295E+01   5.6713288295E+01   0.0000000000E+00     0.000   1.
   25    2    1    2    0    0   0.0000000000E+00   0.0000000000E+00   1.2163867614E+01   1.2559044420E+02   1.2500000000E+02  3.286E-08  -1.
3000002    2    3    0    0    0  -4.5692969180E+01  -1.7969540945E+01   4.3614755745E+01   6.6430405335E+01   1.0000000000E+01  6.229E-10   1.
3000002    2    3    0    0    0   4.5692969180E+01   1.7969540945E+01  -3.1450888131E+01   5.9160038865E+01   1.0000000000E+01  3.314E-10   1.
3000001    1    4    0    0    0  -4.1714370710E+01  -1.8212553582E+01   4.2504822284E+01   6.2285196870E+01   1.0000000000E+00     0.000   1.
3000022   2   4   0   0   0   -3.9785984708E+00   2.4301263719E-01   1.1099334604E+00   4.1452084652E+00   2.5000000000E-01   3.001444E+00   0.
3000001    1    5    0    0    0   6.3890779000E+00   6.3341193772E+00  -4.5587495308E+00   1.0135264278E+01   1.0000000000E+00     0.000  -1.
3000022   2   5   0   0   0   3.9303891280E+01   1.1635421568E+01   -2.6892138600E+01   4.9024774587E+01   2.5000000000E-01   1.447797E+01   0.
13    1    7    0    0    0  -2.0498005119E+00   5.8711836438E-02   5.8469473406E-01   2.1349524937E+00   1.0500000000E-01     0.000   1.
-13    1    7    0    0    0  -1.9287979588E+00   1.8430080075E-01   5.2523872637E-01   2.0102559715E+00   1.0500000000E-01     0.000  -1.
13    1    9    0    0    0   1.7687416227E+01   5.2977601927E+00  -1.2076482578E+01   2.2062715433E+01   1.0500000000E-01     0.000  -1.
-13    1    9    0    0    0   2.1616475054E+01   6.3376613749E+00  -1.4815656022E+01   2.6962059154E+01   1.0500000000E-01     0.000   1.
</event>
<event>
 13   1  9.2978750E-05  1.2500000E+02  7.5467720E-03  1.2380620E-01
   21   -1    0    0  502  501   0.0000000000E+00   0.0000000000E+00   1.3889466888E+02   1.3889466888E+02   0.0000000000E+00     0.000  -1.
   21   -1    0    0  501  502   0.0000000000E+00   0.0000000000E+00  -2.8123829600E+01   2.8123829600E+01   0.0000000000E+00     0.000  -1.
   25    2    1    2    0    0   0.0000000000E+00   0.0000000000E+00   1.1077083928E+02   1.6701849848E+02   1.2500000000E+02  3.173E-08  -1.
3000002    2    3    0    0    0  -3.8821435549E+01  -2.0974585318E+01  -2.2273993164E+00   4.5298988897E+01   1.0000000000E+01  2.654E-10   1.
3000002    2    3    0    0    0   3.8821435549E+01   2.0974585318E+01   1.1299823860E+02   1.2171950958E+02   1.0000000000E+01  5.303E-10   1.
3000001    1    4    0    0    0  -1.6932785403E+01  -1.4553611906E+01  -2.4629870352E+00   2.2485398510E+01   1.0000000000E+00     0.000  -1.
3000022   2   4   0   0   0   -2.1888650146E+01   -6.4209734127E+00   2.3558771888E-01   2.2813590387E+01   2.5000000000E-01   1.012108E+01   0.
3000001    1    5    0    0    0   2.6914285804E+01   1.3552013276E+01   8.8393904092E+01   9.3394422344E+01   1.0000000000E+00     0.000  -1.
3000022   2   5   0   0   0   1.1907149744E+01   7.4225720427E+00   2.4604334504E+01   2.8325087240E+01   2.5000000000E-01   7.335473E+00   0.
13    1    7    0    0    0  -1.2982560842E+01  -3.8745489025E+00   1.3552866121E-01   1.3549479999E+01   1.0500000000E-01     0.000  -1.
-13    1    7    0    0    0  -8.9060893035E+00  -2.5464245102E+00   1.0005905767E-01   9.2641103881E+00   1.0500000000E-01     0.000   1.
13    1    9    0    0    0   4.2309202589E+00   2.6635212025E+00   8.6607011906E+00   1.0000690054E+01   1.0500000000E-01     0.000   1.
-13    1    9    0    0    0   7.6762294854E+00   4.7590508403E+00   1.5943633313E+01   1.8324397186E+01   1.0500000000E-01     0.000  -1.
</event>
<event>
 13   1  9.2978750E-05  1.2500000E+02  7.5467720E-03  1.2380620E-01
   21   -1    0    0  502  501   0.0000000000E+00   0.0000000000E+00   2.4616347526E+01   2.4616347526E+01   0.0000000000E+00     0.000  -1.
   21   -1    0    0  501  502   0.0000000000E+00   0.0000000000E+00  -1.5868519877E+02   1.5868519877E+02   0.0000000000E+00     0.000  -1.
   25    2    1    2    0    0   0.0000000000E+00   0.0000000000E+00  -1.3406885124E+02   1.8330154629E+02   1.2500000000E+02  5.723E-09  -1.
3000002    2    3    0    0    0   2.1352883913E+01  -4.5886558210E+01  -1.5298363814E+01   5.3810424744E+01   1.0000000000E+01  1.389E-09   1.
3000002    2    3    0    0    0  -2.1352883913E+01   4.5886558210E+01  -1.1877048743E+02   1.2949112155E+02   1.0000000000E+01  1.707E-10   1.
3000001    1    4    0    0    0   1.2251968462E+01  -2.0293381966E+01  -2.7407782664E+00   2.3883968437E+01   1.0000000000E+00     0.000   1.
3000022   2   4   0   0   0   9.1009154517E+00   -2.5593176244E+01   -1.2557585548E+01   2.9926456307E+01   2.5000000000E-01   6.996268E+00   0.
3000001    1    5    0    0    0  -1.2996748107E+01   1.9927206089E+01  -4.6417936248E+01   5.2169280323E+01   1.0000000000E+00     0.000   1.
3000022   2   5   0   0   0   -8.3561358062E+00   2.5959352121E+01   -7.2352551178E+01   7.7321841223E+01   2.5000000000E-01   7.577027E-01   0.
13    1    7    0    0    0   4.6594763250E+00  -1.2918230959E+01  -6.3183104385E+00   1.5116993171E+01   1.0500000000E-01     0.000   1.
-13    1    7    0    0    0   4.4414391267E+00  -1.2674945285E+01  -6.2392751092E+00   1.4809463136E+01   1.0500000000E-01     0.000  -1.
13    1    9    0    0    0  -5.0664062124E+00   1.5543965421E+01  -4.3317504723E+01   4.6300114182E+01   1.0500000000E-01     0.000  -1.
-13    1    9    0    0    0  -3.2897295938E+00   1.0415386701E+01  -2.9035046455E+01   3.1021727040E+01   1.0500000000E-01     0.000   1.
</event>
<event>
 13   1  9.2978750E-05  1.2500000E+02  7.5467720E-03  1.2380620E-01
   21   -1    0    0  502  501   0.0000000000E+00   0.0000000000E+00   6.9947449625E+01   6.9947449625E+01   0.0000000000E+00     0.000   1.
   21   -1    0    0  501  502   0.0000000000E+00   0.0000000000E+00  -5.5845495739E+01   5.5845495739E+01   0.0000000000E+00     0.000   1.
   25    2    1    2    0    0   0.0000000000E+00   0.0000000000E+00   1.4101953886E+01   1.2579294536E+02   1.2500000000E+02  6.056E-08  -1.
3000002    2    3    0    0    0  -1.8237047195E+01  -4.2522723079E+01  -3.4018175496E+01   5.8292436324E+01   1.0000000000E+01  5.894E-10   1.
3000002    2    3    0    0    0   1.8237047195E+01   4.2522723079E+01   4.8120129382E+01   6.7500509036E+01   1.0000000000E+01  2.402E-11   1.
3000001    1    4    0    0    0  -1.6804480386E+01  -3.2704169013E+01  -2.2632694108E+01   4.3187869530E+01   1.0000000000E+00     0.000   1.
3000022   2   4   0   0   0   -1.4325668084E+00   -9.8185540663E+00   -1.1385481387E+01   1.5104566794E+01   2.5000000000E-01   5.556952E+00   0.
3000001    1    5    0    0    0   6.6718219703E+00   1.6246835875E+01   2.5356740618E+01   3.0861580956E+01   1.0000000000E+00     0.000   1.
3000022   2   5   0   0   0   1.1565225224E+01   2.6275887204E+01   2.2763388764E+01   3.6638928080E+01   2.5000000000E-01   9.142717E-02   0.
13    1    7    0    0    0  -7.3229882834E-01  -4.8611288385E+00  -5.5435688069E+00   7.4100617592E+00   1.0500000000E-01     0.000   1.
-13    1    7    0    0    0  -7.0026798006E-01  -4.9574252278E+00  -5.8419125804E+00   7.6945050348E+00   1.0500000000E-01     0.000  -1.
13    1    9    0    0    0   4.5887526167E+00   1.0557711920E+01   9.1712757761E+00   1.4718874139E+01   1.0500000000E-01     0.000   1.
-13    1    9    0    0    0   6.9764726077E+00   1.5718175284E+01   1.3592112988E+01   2.1920053941E+01   1.0500000000E-01     0.000  -1.
</event>
<event>
 13   1  9.2978750E-05  1.2500000E+02  7.5467720E-03  1.2380620E-01
   21   -1    0    0  502  501   0.0000000000E+00   0.0000000000E+00   1.7500926393E+02   1.7500926393E+02   0.0000000000E+00     0.000  -1.
   21   -1    0    0  501  502   0.0000000000E+00   0.0000000000E+00  -2.2320247010E+01   2.2320247010E+01   0.0000000000E+00     0.000  -1.
   25    2    1    2    0    0   0.0000000000E+00   0.0000000000E+00   1.5268901692E+02   1.9732951094E+02   1.2500000000E+02  6.737E-08  -1.
3000002    2    3    0    0    0  -2.4317624875E+01  -2.8490614126E+01   1.5373291463E+02   1.5854611636E+02   1.0000000000E+01  1.435E-09   1.
3000002    2    3    0    0    0   2.4317624875E+01   2.8490614126E+01  -1.0438977068E+00   3.8783394581E+01   1.0000000000E+01  2.511E-09   1.
3000001    1    4    0    0    0  -4.2352310065E+00  -4.7105716114E+00   1.4159941747E+01   1.5544472229E+01   1.0000000000E+00     0.000   1.
3000022   2   4   0   0   0   -2.0082393868E+01   -2.3780042515E+01   1.3957297288E+02   1.4300164413E+02   2.5000000000E-01   1.610054E+01   0.
3000001    1    5    0    0    0   6.0967266867E-01   5.3640221498E+00   1.0770332762E+00   5.5950366455E+00   1.0000000000E+00     0.000  -1.
3000022   2   5   0   0   0   2.3707952206E+01   2.3126591976E+01   -2.1209309830E+00   3.3188357936E+01   2.5000000000E-01   3.024518E+00   0.
13    1    7    0    0    0  -1.3348552949E+01  -1.5796373675E+01   9.2983103457E+01   9.5255329723E+01   1.0500000000E-01     0.000  -1.
-13    1    7    0    0    0  -6.7338409187E+00  -7.9836688399E+00   4.6589869422E+01   4.7746314407E+01   1.0500000000E-01     0.000   1.
13    1    9    0    0    0   1.4968929686E+01   1.4532195565E+01  -1.3685928023E+00   2.0907836692E+01   1.0500000000E-01     0.000   1.
-13    1    9    0    0    0   8.7390225199E+00   8.5943964107E+00  -7.5233818072E-01   1.2280521243E+01   1.0500000000E-01     0.000  -1.
</event>
<event>
 13   1  9.2978750E-05  1.2500000E+02  7.5467720E-03  1.2380620E-01
   21   -1    0    0  502  501   0.0000000000E+00   0.0000000000E+00   6.2665066669E+00   6.2665066669E+00   0.0000000000E+00     0.000  -1.
   21   -1    0    0  501  502   0.0000000000E+00   0.0000000000E+00  -6.2335368134E+02   6.2335368134E+02   0.0000000000E+00     0.000  -1.
   25    2    1    2    0    0   0.0000000000E+00   0.0000000000E+00  -6.1708717468E+02   6.2962018801E+02   1.2500000000E+02  2.546E-09  -1.
3000002    2    3    0    0    0   1.9696176813E+01  -5.2599721093E+01  -1.7996978409E+02   1.8879563879E+02   1.0000000000E+01  2.007E-09   1.
3000002    2    3    0    0    0  -1.9696176813E+01   5.2599721093E+01  -4.3711739059E+02   4.4082454922E+02   1.0000000000E+01  1.211E-10   1.
3000001    1    4    0    0    0   1.9010672952E+01  -4.0602615194E+01  -1.3535219226E+02   1.4258749593E+02   1.0000000000E+00     0.000   1.
3000022   2   4   0   0   0   6.8550386094E-01   -1.1997105899E+01   -4.4617591826E+01   4.6208142853E+01   2.5000000000E-01   1.761341E+00   0.
3000001    1    5    0    0    0  -6.6645579476E+00   8.6262041264E+00  -1.0127138825E+02   1.0186128709E+02   1.0000000000E+00     0.000  -1.
3000022   2   5   0   0   0   -1.3031618865E+01   4.3973516967E+01   -3.3584600234E+02   3.3896326213E+02   2.5000000000E-01   1.524511E+00   0.
13    1    7    0    0    0   2.4211094353E-01  -3.5364168104E+00  -1.3238963503E+01   1.3705693751E+01   1.0500000000E-01     0.000  -1.
-13    1    7    0    0    0   4.4339291742E-01  -8.4606890888E+00  -3.1378628323E+01   3.2502449101E+01   1.0500000000E-01     0.000   1.
13    1    9    0    0    0  -7.9990052851E+00   2.7103160432E+01  -2.0654165392E+02   2.0846589941E+02   1.0500000000E-01     0.000   1.
-13    1    9    0    0    0  -5.0326135804E+00   1.6870356534E+01  -1.2930434842E+02   1.3049736271E+02   1.0500000000E-01     0.000  -1.
</event>
<event>
 13   1  9.2978750E-05  1.2500000E+02  7.5467720E-03  1.2380620E-01
   21   -1    0    0  502  501   0.0000000000E+00   0.0000000000E+00   2.5297905402E+02   2.5297905402E+02   0.0000000000E+00     0.000  -1.
   21   -1    0    0  501  502   0.0000000000E+00   0.0000000000E+00  -1.5441001687E+01   1.5441001687E+01   0.0000000000E+00     0.000  -1.
   25    2    1    2    0    0   0.0000000000E+00   0.0000000000E+00   2.3753805233E+02   2.6842005571E+02   1.2500000000E+02  2.969E-08  -1.
3000002    2    3    0    0    0   5.0589993147E+01  -2.8264378868E+01   1.6422147388E+02   1.7443312473E+02   1.0000000000E+01  1.777E-09  -1.
3000002    2    3    0    0    0  -5.0589993147E+01   2.8264378868E+01   7.3316578446E+01   9.3986930977E+01   1.0000000000E+01  2.541E-10  -1.
3000001    1    4    0    0    0   4.8131850322E+01  -2.8884254696E+01   1.5905729957E+02   1.6867483431E+02   1.0000000000E+00     0.000  -1.
3000022   2   4   0   0   0   2.4581428252E+00   6.1987582742E-01   5.1641743158E+00   5.7582904194E+00   2.5000000000E-01   8.866215E-01   0.
3000001    1    5    0    0    0  -1.4195901045E+01   8.4408942408E+00   2.8426051661E+01   3.2890921469E+01   1.0000000000E+00     0.000  -1.
3000022   2   5   0   0   0   -3.6394092103E+01   1.9823484627E+01   4.4890526785E+01   6.1096009508E+01   2.5000000000E-01   5.124037E+00   0.
13    1    7    0    0    0   1.0232017352E+00   3.1032934941E-01   2.2712150650E+00   2.5125065109E+00   1.0500000000E-01     0.000  -1.
-13    1    7    0    0    0   1.4349410900E+00   3.0954647801E-01   2.8929592508E+00   3.2457839085E+00   1.0500000000E-01     0.000   1.
13    1    9    0    0    0  -2.4632119844E+01   1.3458099145E+01   3.0457365482E+01   4.1418883347E+01   1.0500000000E-01     0.000  -1.
-13    1    9    0    0    0  -1.1761972259E+01   6.3653854820E+00   1.4433161302E+01   1.9677126160E+01   1.0500000000E-01     0.000   1.
</event>
<event>
 13   1  9.2978750E-05  1.2500000E+02  7.5467720E-03  1.2380620E-01
   21   -1    0    0  502  501   0.0000000000E+00   0.0000000000E+00   1.1129923246E+01   1.1129923246E+01   0.0000000000E+00     0.000   1.
   21   -1    0    0  501  502   0.0000000000E+00   0.0000000000E+00  -3.5096827837E+02   3.5096827837E+02   0.0000000000E+00     0.000   1.
   25    2    1    2    0    0   0.0000000000E+00   0.0000000000E+00  -3.3983835512E+02   3.6209820161E+02   1.2500000000E+02  1.264E-08  -1.
3000002    2    3    0    0    0  -4.4697612558E+01   3.1548363889E+01  -8.7318913372E+01   1.0352665582E+02   1.0000000000E+01  5.857E-10   1.
3000002    2    3    0    0    0   4.4697612558E+01  -3.1548363889E+01  -2.5251944175E+02   2.5857154579E+02   1.0000000000E+01  3.471E-10   1.
3000001    1    4    0    0    0  -4.1176664311E+00   5.1863310647E+00  -1.5945942668E+01   1.7295267975E+01   1.0000000000E+00     0.000  -1.
3000022   2   4   0   0   0   -4.0579946127E+01   2.6362032824E+01   -7.1372970703E+01   8.6231387843E+01   2.5000000000E-01   1.173373E+01   0.
3000001    1    5    0    0    0   1.4126526262E+01  -4.7727257718E+00  -7.1855283347E+01   7.3392911105E+01   1.0000000000E+00     0.000   1.
3000022   2   5   0   0   0   3.0571086296E+01   -2.6775638117E+01   -1.8066415840E+02   1.8517863469E+02   2.5000000000E-01   4.800107E+00   0.
13    1    7    0    0    0  -1.2168800437E+01   7.9485840084E+00  -2.1488003342E+01   2.5942339996E+01   1.0500000000E-01     0.000  -1.
-13    1    7    0    0    0  -2.8411145689E+01   1.8413448816E+01  -4.9884967361E+01   6.0289047847E+01   1.0500000000E-01     0.000   1.
13    1    9    0    0    0   6.9919024930E+00  -6.1235840163E+00  -4.1322066691E+01   4.2354565306E+01   1.0500000000E-01     0.000  -1.
-13    1    9    0    0    0   2.3579183803E+01  -2.0652054101E+01  -1.3934209171E+02   1.4282406938E+02   1.0500000000E-01     0.000   1.
</event>
<event>
 13   1  9.2978750E-05  1.2500000E+02  7.5467720E-03  1.2380620E-01
   21   -1    0    0  502  501   0.0000000000E+00   0.0000000000E+00   1.1292884891E+03   1.1292884891E+03   0.0000000000E+00     0.000  -1.
   21   -1    0    0  501  502   0.0000000000E+00   0.0000000000E+00  -3.4590364090E+00   3.4590364090E+00   0.0000000000E+00     0.000  -1.
   25    2    1    2    0    0   0.0000000000E+00   0.0000000000E+00   1.1258294527E+03   1.1327475255E+03   1.2500000000E+02  1.683E-07  -1.
3000002    2    3    0    0    0  -2.9811581850E+01   5.2082848700E+01   4.3319968890E+02   4.3745093897E+02   1.0000000000E+01  1.908E-10  -1.
3000002    2    3    0    0    0   2.9811581850E+01  -5.2082848700E+01   6.9262976380E+02   6.9529658653E+02   1.0000000000E+01  1.554E-09  -1.
3000001    1    4    0    0    0  -2.4555597754E+01   3.4265084072E+01   3.1159884368E+02   3.1443904457E+02   1.0000000000E+00     0.000   1.
3000022   2   4   0   0   0   -5.2559840952E+00   1.7817764628E+01   1.2160084522E+02   1.2301189440E+02   2.5000000000E-01   2.532292E+00   0.
3000001    1    5    0    0    0   4.2298614078E+00  -2.4532214473E+00   6.0805005684E+01   6.1009497123E+01   1.0000000000E+00     0.000   1.
3000022   2   5   0   0   0   2.5581720442E+01   -4.9629627253E+01   6.3182475811E+02   6.3428708941E+02   2.5000000000E-01   7.477839E+00   0.
13    1    7    0    0    0  -1.2237191577E+00   4.1366653554E+00   2.8312631975E+01   2.8639581757E+01   1.0500000000E-01     0.000  -1.
-13    1    7    0    0    0  -4.0322649375E+00   1.3681099273E+01   9.3288213247E+01   9.4372312644E+01   1.0500000000E-01     0.000   1.
13    1    9    0    0    0   1.5061952551E+01  -2.9273808613E+01   3.7186331571E+02   3.7331776663E+02   1.0500000000E-01     0.000   1.
-13    1    9    0    0    0   1.0519767891E+01  -2.0355818640E+01   2.5996144241E+02   2.6096932278E+02   1.0500000000E-01     0.000  -1.
</event>
<event>
 13   1  9.2978750E-05  1.2500000E+02  7.5467720E-03  1.2380620E-01
   21   -1    0    0  502  501   0.0000000000E+00   0.0000000000E+00   3.2027527799E+00   3.2027527799E+00   0.0000000000E+00     0.000   1.
   21   -1    0    0  501  502   0.0000000000E+00   0.0000000000E+00  -1.2196539254E+03   1.2196539254E+03   0.0000000000E+00     0.000   1.
   25    2    1    2    0    0   0.0000000000E+00   0.0000000000E+00  -1.2164511726E+03   1.2228566782E+03   1.2500000000E+02  4.754E-08  -1.
3000002    2    3    0    0    0   9.7446020178E+00  -5.6197016977E+01  -8.3831780713E+02   8.4031530257E+02   1.0000000000E+01  1.759E-09  -1.
3000002    2    3    0    0    0  -9.7446020178E+00   5.6197016977E+01  -3.7813336547E+02   3.8254137563E+02   1.0000000000E+01  3.682E-10  -1.
3000001    1    4    0    0    0  -1.1696712803E+00  -4.2301877189E+00  -4.5863168608E+01   4.6083542115E+01   1.0000000000E+00     0.000   1.
3000022   2   4   0   0   0   1.0914273298E+01   -5.1966829258E+01   -7.9245463852E+02   7.9423176046E+02   2.5000000000E-01   2.281025E-01   0.
3000001    1    5    0    0    0   7.0941903227E-02   2.3278860021E+01  -1.7070541677E+02   1.7228827491E+02   1.0000000000E+00     0.000   1.
3000022   2   5   0   0   0   -9.8155439211E+00   3.2918156956E+01   -2.0742794870E+02   2.1025310071E+02   2.5000000000E-01   1.268498E+01   0.
13    1    7    0    0    0   6.0280419917E+00  -2.8997371247E+01  -4.4160112340E+02   4.4259320831E+02   1.0500000000E-01     0.000  -1.
-13    1    7    0    0    0   4.8862313064E+00  -2.2969458011E+01  -3.5085351513E+02   3.5163855215E+02   1.0500000000E-01     0.000   1.
13    1    9    0    0    0  -2.3117620638E+00   7.7054539330E+00  -4.8587028314E+01   4.9248640687E+01   1.0500000000E-01     0.000  -1.
-13    1    9    0    0    0  -7.5037818573E+00   2.5212703023E+01  -1.5884092038E+02   1.6100446003E+02   1.0500000000E-01     0.000   1.
</event>
<event>
 13   1  9.2978750E-05  1.2500000E+02  7.5467720E-03  1.2380620E-01
   21   -1    0    0  502  501   0.0000000000E+00   0.0000000000E+00   6.3266862422E+01   6.3266862422E+01   0.0000000000E+00     0.000   1.
   21   -1    0    0  501  502   0.0000000000E+00   0.0000000000E+00  -6.1742432776E+01   6.1742432776E+01   0.0000000000E+00     0.000   1.
   25    2    1    2    0    0   0.0000000000E+00   0.0000000000E+00   1.5244296462E+00   1.2500929520E+02   1.2500000000E+02  6.009E-08  -1.
3000002    2    3    0    0    0   2.5180704823E+00  -1.7986046794E+01   5.9727700355E+01   6.3223704004E+01   1.0000000000E+01  1.074E-09  -1.
3000002    2    3    0    0    0  -2.5180704823E+00   1.7986046794E+01  -5.8203270709E+01   6.1785591196E+01   1.0000000000E+01  4.364E-10  -1.
3000001    1    4    0    0    0   4.8689959221E+00  -6.3668927119E+00   3.3168737211E+01   3.4138095616E+01   1.0000000000E+00     0.000  -1.
3000022   2   4   0   0   0   -2.3509254397E+00   -1.1619154082E+01   2.6558963144E+01   2.9085608388E+01   2.5000000000E-01   1.506116E+01   0.
3000001    1    5    0    0    0  -4.6624351961E+00   3.5156593737E+00  -2.0647988175E+01   2.1481098167E+01   1.0000000000E+00     0.000   1.
3000022   2   5   0   0   0   2.1443647137E+00   1.4470387420E+01   -3.7555282534E+01   4.0304493029E+01   2.5000000000E-01   1.310267E+01   0.
13    1    7    0    0    0  -1.0830584663E+00  -5.4594444493E+00   1.2312954332E+01   1.3512898235E+01   1.0500000000E-01     0.000  -1.
-13    1    7    0    0    0  -1.2678669734E+00  -6.1597096327E+00   1.4246008812E+01   1.5572710152E+01   1.0500000000E-01     0.000   1.
13    1    9    0    0    0   1.1525151935E+00   8.0367304777E+00  -2.0992807050E+01   2.2508360689E+01   1.0500000000E-01     0.000  -1.
-13    1    9    0    0    0   9.9184952023E-01   6.4336569426E+00  -1.6562475484E+01   1.7796132340E+01   1.0500000000E-01     0.000   1.
</event>
<event>
 13   1  9.2978750E-05  1.2500000E+02  7.5467720E-03  1.2380620E-01
   21   -1    0    0  502  501   0.0000000000E+00   0.0000000000E+00   3.6757090464E+01   3.6757090464E+01   0.0000000000E+00     0.000  -1.
   21   -1    0    0  501  502   0.0000000000E+00   0.0000000000E+00  -1.0627201312E+02   1.0627201312E+02   0.0000000000E+00     0.000  -1.
   25    2    1    2    0    0   0.0000000000E+00   0.0000000000E+00  -6.9514922653E+01   1.4302910358E+02   1.2500000000E+02  1.628E-08  -1.
3000002    2    3    0    0    0  -4.3649117333E+01  -6.6746302234E-01   1.5125828472E+01   4.7270303974E+01   1.0000000000E+01  9.284E-10  -1.
3000002    2    3    0    0    0   4.3649117333E+01   6.6746302234E-01  -8.4640751125E+01   9.5758799606E+01   1.0000000000E+01  9.861E-12  -1.
3000001    1    4    0    0    0  -1.9590497283E+00   4.4692849459E-02  -1.1824856761E+00   2.4976280073E+00   1.0000000000E+00     0.000   1.
3000022   2   4   0   0   0   -4.1690067605E+01   -7.1215587180E-01   1.6308314148E+01   4.4772675967E+01   2.5000000000E-01   8.238423E+00   0.
3000001    1    5    0    0    0   2.0874625624E+01   1.6754833577E+00  -3.0470568317E+01   3.6986656689E+01   1.0000000000E+00     0.000  -1.
3000022   2   5   0   0   0   2.2774491710E+01   -1.0080203354E+00   -5.4170182808E+01   5.8772142917E+01   2.5000000000E-01   5.228132E+00   0.
13    1    7    0    0    0  -3.1748826056E+01  -5.2749509683E-01   1.2408257676E+01   3.4091671866E+01   1.0500000000E-01     0.000   1.
-13    1    7    0    0    0  -9.9412415485E+00  -1.8466077497E-01   3.9000564724E+00   1.0681004101E+01   1.0500000000E-01     0.000  -1.
13    1    9    0    0    0   1.5009711136E+01  -7.0743822324E-01  -3.5616838368E+01   3.8656979934E+01   1.0500000000E-01     0.000   1.
-13    1    9    0    0    0   7.7647805737E+00  -3.0058211211E-01  -1.8553344439E+01   2.0115162983E+01   1.0500000000E-01     0.000  -1.
</event>
<event>
 13   1  9.2978750E-05  1.2500000E+02  7.5467720E-03  1.2380620E-01
   21   -1    0    0  502  501   0.0000000000E+00   0.0000000000E+00   9.9999051288E+00   9.9999051288E+00   0.0000000000E+00     0.000  -1.
   21   -1    0    0  501  502   0.0000000000E+00   0.0000000000E+00  -3.9062870594E+02   3.9062870594E+02   0.0000000000E+00     0.000  -1.
   25    2    1    2    0    0   0.0000000000E+00   0.0000000000E+00  -3.8062880081E+02   4.0062861107E+02   1.2500000000E+02  1.922E-08  -1.
3000002    2    3    0    0    0  -2.5781387683E+01   2.9235571361E+01  -3.4358220000E+02   3.4593081207E+02   1.0000000000E+01  1.390E-09  -1.
3000002    2    3    0    0    0   2.5781387683E+01  -2.9235571361E+01  -3.7046600810E+01   5.4697798998E+01   1.0000000000E+01  4.541E-10  -1.
3000001    1    4    0    0    0  -1.6527976027E+01   1.4023767290E+01  -2.2087563241E+02   2.2193892185E+02   1.0000000000E+00     0.000  -1.
3000022   2   4   0   0   0   -9.2534116558E+00   1.5211804071E+01   -1.2270656759E+02   1.2399189022E+02   2.5000000000E-01   1.202255E-01   0.
3000001    1    5    0    0    0   2.0427790575E+01  -1.7032152870E+01  -2.1459604196E+01   3.4189230343E+01   1.0000000000E+00     0.000   1.
3000022   2   5   0   0   0   5.3535971081E+00   -1.2203418491E+01   -1.5586996613E+01   2.0508568655E+01   2.5000000000E-01   2.298698E+00   0.
13    1    7    0    0    0  -5.0114913284E+00   8.3631172916E+00  -6.7076083676E+01   6.7781035715E+01   1.0500000000E-01     0.000   1.
-13    1    7    0    0    0  -4.2419203274E+00   6.8486867795E+00  -5.5630483913E+01   5.6210854504E+01   1.0500000000E-01     0.000  -1.
13    1    9    0    0    0   1.3686036274E+00  -3.1511879799E+00  -3.9768987856E+00   5.2564066171E+00   1.0500000000E-01     0.000  -1.
-13    1    9    0    0    0   3.9849934807E+00  -9.0522305111E+00  -1.1610097828E+01   1.5252162038E+01   1.0500000000E-01     0.000   1.
</event>
<event>
 13   1  9.2978750E-05  1.2500000E+02  7.5467720E-03  1.2380620E-01
   21   -1    0    0  502  501   0.0000000000E+00   0.0000000000E+00   3.9813786439E+02   3.9813786439E+02   0.0000000000E+00     0.000   1.
   21   -1    0    0  501  502   0.0000000000E+00   0.0000000000E+00  -9.8112999275E+00   9.8112999275E+00   0.0000000000E+00     0.000   1.
   25    2    1    2    0    0   0.0000000000E+00   0.0000000000E+00   3.8832656446E+02   4.0794916431E+02   1.2500000000E+02  4.829E-08  -1.
3000002    2    3    0    0    0   3.1393157096E+01   5.1757174022E+01   2.3304179201E+02   2.4098301226E+02   1.0000000000E+01  4.147E-11  -1.
3000002    2    3    0    0    0  -3.1393157096E+01  -5.1757174022E+01   1.5528477245E+02   1.6696615205E+02   1.0000000000E+01  4.177E-10  -1.
3000001    1    4    0    0    0   1.2943317686E+01   2.8490386385E+01   1.0671355877E+02   1.1121157860E+02   1.0000000000E+00     0.000  -1.
3000022   2   4   0   0   0   1.8449839410E+01   2.3266787637E+01   1.2632823324E+02   1.2977143367E+02   2.5000000000E-01   5.495345E+00   0.
3000001    1    5    0    0    0  -1.4717160193E+01  -2.4735012285E+01   8.7374396648E+01   9.1998374042E+01   1.0000000000E+00     0.000   1.
3000022   2   5   0   0   0   -1.6675996903E+01   -2.7022161736E+01   6.7910375802E+01   7.4967778006E+01   2.5000000000E-01   4.421352E+00   0.
13    1    7    0    0    0   9.3168691525E+00   1.1673396439E+01   6.3327636087E+01   6.5065142377E+01   1.0500000000E-01     0.000   1.
-13    1    7    0    0    0   9.1329702575E+00   1.1593391198E+01   6.3000597157E+01   6.4706291289E+01   1.0500000000E-01     0.000  -1.
13    1    9    0    0    0  -5.4548109339E+00  -8.8668936003E+00   2.2146309312E+01   2.4471346623E+01   1.0500000000E-01     0.000  -1.
-13    1    9    0    0    0  -1.1221185969E+01  -1.8155268136E+01   4.5764066490E+01   5.0496431382E+01   1.0500000000E-01     0.000   1.
</event>
<event>
 13   1  9.2978750E-05  1.2500000E+02  7.5467720E-03  1.2380620E-01
   21   -1    0    0  502  501   0.0000000000E+00   0.0000000000E+00   2.1269515191E+02   2.1269515191E+02   0.0000000000E+00     0.000  -1.
   21   -1    0    0  501  502   0.0000000000E+00   0.0000000000E+00  -1.8365486777E+01   1.8365486777E+01   0.0000000000E+00     0.000  -1.
   25    2    1    2    0    0   0.0000000000E+00   0.0000000000E+00   1.9432966513E+02   2.3106063869E+02   1.2500000000E+02  5.747E-08  -1.
3000002    2    3    0    0    0  -2.2189653504E+01   3.1050062376E+01   1.8676895238E+02   1.9089035772E+02   1.0000000000E+01  7.389E-10   1.
3000002    2    3    0    0    0   2.2189653504E+01  -3.1050062376E+01   7.5607127508E+00   4.0170280974E+01   1.0000000000E+01  1.138E-09   1.
3000001    1    4    0    0    0  -4.5034319800E+00   3.0871516454E+00   1.5736854271E+01   1.6687120400E+01   1.0000000000E+00     0.000  -1.
3000022   2   4   0   0   0   -1.7686221524E+01   2.7962910731E+01   1.7103209811E+02   1.7420323732E+02   2.5000000000E-01   1.091758E-01   0.
3000001    1    5    0    0    0   1.3621924833E+01  -2.2594057639E+01   9.3274783484E+00   2.8000895148E+01   1.0000000000E+00     0.000  -1.
3000022   2   5   0   0   0   8.5677286710E+00   -8.4560047377E+00   -1.7667655976E+00   1.2169385826E+01   2.5000000000E-01   1.298532E+01   0.
13    1    7    0    0    0  -7.1184886506E+00   1.1182238865E+01   6.8260344243E+01   6.9535609351E+01   1.0500000000E-01     0.000   1.
-13    1    7    0    0    0  -1.0567732874E+01   1.6780671866E+01   1.0277175387E+02   1.0466762797E+02   1.0500000000E-01     0.000  -1.
13    1    9    0    0    0   5.0579815481E+00  -4.9283271410E+00  -9.9033340681E-01   7.1318560702E+00   1.0500000000E-01     0.000  -1.
-13    1    9    0    0    0   3.5097471229E+00  -3.5276775968E+00  -7.7643219081E-01   5.0375297558E+00   1.0500000000E-01     0.000   1.
</event>
<event>
 13   1  9.2978750E-05  1.2500000E+02  7.5467720E-03  1.2380620E-01
   21   -1    0    0  502  501   0.0000000000E+00   0.0000000000E+00   2.6439082688E+02   2.6439082688E+02   0.0000000000E+00     0.000  -1.
   21   -1    0    0  501  502   0.0000000000E+00   0.0000000000E+00  -1.4774529230E+01   1.4774529230E+01   0.0000000000E+00     0.000  -1.
   25    2    1    2    0    0   0.0000000000E+00   0.0000000000E+00   2.4961629765E+02   2.7916535611E+02   1.2500000000E+02  1.733E-08  -1.
3000002    2    3    0    0    0  -4.3595458632E+01  -3.6415028028E+01   7.1039690885E+01   9.1505496888E+01   1.0000000000E+01  2.622E-10   1.
3000002    2    3    0    0    0   4.3595458632E+01   3.6415028028E+01   1.7857660677E+02   1.8765985922E+02   1.0000000000E+01  1.725E-10   1.
3000001    1    4    0    0    0  -2.0029048859E+01  -1.9546140911E+01   2.7867782041E+01   3.9507311964E+01   1.0000000000E+00     0.000   1.
3000022   2   4   0   0   0   -2.3566409773E+01   -1.6868887117E+01   4.3171908844E+01   5.1998184924E+01   2.5000000000E-01   3.077544E+00   0.
3000001    1    5    0    0    0   4.2181068543E+01   3.1790372514E+01   1.6429214693E+02   1.7257688104E+02   1.0000000000E+00     0.000   1.
3000022   2   5   0   0   0   1.4143900893E+00   4.6246555148E+00   1.4284459840E+01   1.5082978183E+01   2.5000000000E-01   8.130824E+00   0.
13    1    7    0    0    0  -1.1704440125E+01  -8.3869049284E+00   2.1328350658E+01   2.5734095276E+01   1.0500000000E-01     0.000   1.
-13    1    7    0    0    0  -1.1861969648E+01  -8.4819821888E+00   2.1843558186E+01   2.6264089647E+01   1.0500000000E-01     0.000  -1.
13    1    9    0    0    0   9.9521264859E-01   3.3756865251E+00   1.0417565211E+01   1.0996472055E+01   1.0500000000E-01     0.000  -1.
-13    1    9    0    0    0   4.1917744070E-01   1.2489689897E+00   3.8668946293E+00   4.0865061284E+00   1.0500000000E-01     0.000   1.
</event>
<event>
 13   1  9.2978750E-05  1.2500000E+02  7.5467720E-03  1.2380620E-01
   21   -1    0    0  502  501   0.0000000000E+00   0.0000000000E+00   3.2794883908E+02   3.2794883908E+02   0.0000000000E+00     0.000   1.
   21   -1    0    0  501  502   0.0000000000E+00   0.0000000000E+00  -1.1911156664E+01   1.1911156664E+01   0.0000000000E+00     0.000   1.
   25    2    1    2    0    0   0.0000000000E+00   0.0000000000E+00   3.1603768241E+02   3.3985999574E+02   1.2500000000E+02  2.521E-08  -1.
3000002    2    3    0    0    0  -2.5187620799E+01   5.6091640252E+01   1.4427258294E+02   1.5714727658E+02   1.0000000000E+01  1.620E-09  -1.
3000002    2    3    0    0    0   2.5187620799E+01  -5.6091640252E+01   1.7176509947E+02   1.8271271916E+02   1.0000000000E+01  6.465E-10  -1.
3000001    1    4    0    0    0  -2.2586881307E+01   4.9517895726E+01   1.3437034881E+02   1.4497785984E+02   1.0000000000E+00     0.000  -1.
3000022   2   4   0   0   0   -2.6007394924E+00   6.5737445259E+00   9.9022341339E+00   1.2169416742E+01   2.5000000000E-01   6.363014E+00   0.
3000001    1    5    0    0    0   1.3806089417E+01  -4.0838991076E+01   1.2468792651E+02   1.3193373456E+02   1.0000000000E+00     0.000  -1.
3000022   2   5   0   0   0   1.1381531382E+01   -1.5252649176E+01   4.7077172951E+01   5.0778984596E+01   2.5000000000E-01   2.352953E+00   0.
13    1    7    0    0    0  -9.3738853698E-01   2.2946397356E+00   3.3884097912E+00   4.1995731567E+00   1.0500000000E-01     0.000   1.
-13    1    7    0    0    0  -1.6633509555E+00   4.2791047904E+00   6.5138243427E+00   7.9698435854E+00   1.0500000000E-01     0.000  -1.
13    1    9    0    0    0   6.8965956283E+00  -9.2420508390E+00   2.8691497130E+01   3.0922347380E+01   1.0500000000E-01     0.000   1.
-13    1    9    0    0    0   4.4849357541E+00  -6.0105983365E+00   1.8385675821E+01   1.9856637215E+01   1.0500000000E-01     0.000  -1.
</event>
<event>
 13   1  9.2978750E-05  1.2500000E+02  7.5467720E-03  1.2380620E-01
   21   -1    0    0  502  501   0.0000000000E+00   0.0000000000E+00   8.5017998164E+00   8.5017998164E+00   0.0000000000E+00     0.000  -1.
   21   -1    0    0  501  502   0.0000000000E+00   0.0000000000E+00  -4.5946153572E+02   4.5946153572E+02   0.0000000000E+00     0.000  -1.
   25    2    1    2    0    0   0.0000000000E+00   0.0000000000E+00  -4.5095973590E+02   4.6796333553E+02   1.2500000000E+02  1.998E-07  -1.
3000002    2    3    0    0    0  -4.0308776354E+01  -3.4768279106E+00  -5.1111360172E+01   6.5948896292E+01   1.0000000000E+01  2.284E-10  -1.
3000002    2    3    0    0    0   4.0308776354E+01   3.4768279106E+00  -3.9984837573E+02   4.0201443924E+02   1.0000000000E+01  1.795E-09  -1.
3000001    1    4    0    0    0  -2.1192598483E+01   2.6952972871E+00  -2.3123795724E+01   3.1497631444E+01   1.0000000000E+00     0.000   1.
3000022   2   4   0   0   0   -1.9116177872E+01   -6.1721251977E+00   -2.7987564448E+01   3.4451264848E+01   2.5000000000E-01   6.462650E+00   0.
3000001    1    5    0    0    0   3.5915258182E+00   2.6042866758E+00  -6.4679834035E+01   6.4839511855E+01   1.0000000000E+00     0.000   1.
3000022   2   5   0   0   0   3.6717250536E+01   8.7254123480E-01   -3.3516854169E+02   3.3717492738E+02   2.5000000000E-01   3.343245E+00   0.
13    1    7    0    0    0  -9.9938979719E+00  -3.1625929673E+00  -1.4653970386E+01   1.8017487728E+01   1.0500000000E-01     0.000   1.
-13    1    7    0    0    0  -9.1222798996E+00  -3.0095322304E+00  -1.3333594062E+01   1.6433777120E+01   1.0500000000E-01     0.000  -1.
13    1    9    0    0    0   2.7641299901E+01   6.5980771614E-01  -2.5254090116E+02   2.5404998443E+02   1.0500000000E-01     0.000   1.
-13    1    9    0    0    0   9.0759506352E+00   2.1273351866E-01  -8.2627640536E+01   8.3124942953E+01   1.0500000000E-01     0.000  -1.
</event>
<event>
 13   1  9.2978750E-05  1.2500000E+02  7.5467720E-03  1.2380620E-01
   21   -1    0    0  502  501   0.0000000000E+00   0.0000000000E+00   1.8048103451E+02   1.8048103451E+02   0.0000000000E+00     0.000  -1.
   21   -1    0    0  501  502   0.0000000000E+00   0.0000000000E+00  -2.1643548368E+01   2.1643548368E+01   0.0000000000E+00     0.000  -1.
   25    2    1    2    0    0   0.0000000000E+00   0.0000000000E+00   1.5883748615E+02   2.0212458288E+02   1.2500000000E+02  6.191E-08  -1.
3000002    2    3    0    0    0  -1.1637410089E+01   2.5998517207E+01  -9.0724654482E+00   3.1522402190E+01   1.0000000000E+01  1.067E-10   1.
3000002    2    3    0    0    0   1.1637410089E+01  -2.5998517207E+01   1.6790995160E+02   1.7060218069E+02   1.0000000000E+01  9.833E-10   1.
3000001    1    4    0    0    0  -6.6141110147E-01   2.2372071615E+00  -4.1855420058E+00   4.8950303789E+00   1.0000000000E+00     0.000  -1.
3000022   2   4   0   0   0   -1.0975998987E+01   2.3761310045E+01   -4.8869234424E+00   2.6627371811E+01   2.5000000000E-01   3.989758E+00   0.
3000001    1    5    0    0    0   7.0711569422E+00  -1.6220956195E+01   1.2939764489E+02   1.3060578542E+02   1.0000000000E+00     0.000   1.
3000022   2   5   0   0   0   4.5662531465E+00   -9.7775610121E+00   3.8512306706E+01   3.9996395275E+01   2.5000000000E-01   2.657726E+00   0.
13    1    7    0    0    0  -4.3208408999E+00   9.4714427954E+00  -1.9041203855E+00   1.0583694731E+01   1.0500000000E-01     0.000  -1.
-13    1    7    0    0    0  -6.6551580873E+00   1.4289867250E+01  -2.9828030568E+00   1.6043677080E+01   1.0500000000E-01     0.000   1.
13    1    9    0    0    0   1.7275699674E+00  -3.7442524129E+00   1.4503636344E+01   1.5078806860E+01   1.0500000000E-01     0.000  -1.
-13    1    9    0    0    0   2.8386831791E+00  -6.0333085991E+00   2.4008670362E+01   2.4917588415E+01   1.0500000000E-01     0.000   1.
</event>
<event>
 13   1  9.2978750E-05  1.2500000E+02  7.5467720E-03  1.2380620E-01
   21   -1    0    0  502  501   0.0000000000E+00   0.0000000000E+00   2.4195235068E+01   2.4195235068E+01   0.0000000000E+00     0.000  -1.
   21   -1    0    0  501  502   0.0000000000E+00   0.0000000000E+00  -1.6144707786E+02   1.6144707786E+02   0.0000000000E+00     0.000  -1.
   25    2    1    2    0    0   0.0000000000E+00   0.0000000000E+00  -1.3725184280E+02   1.8564231293E+02   1.2500000000E+02  7.272E-08  -1.
3000002    2    3    0    0    0   4.3028008092E+01  -1.2435517295E+01  -1.3163848472E+02   1.3940854432E+02   1.0000000000E+01  2.143E-10   1.
3000002    2    3    0    0    0  -4.3028008092E+01   1.2435517295E+01  -5.6133580807E+00   4.6233768608E+01   1.0000000000E+01  5.245E-10   1.
3000001    1    4    0    0    0   1.5029820266E+01  -7.1455793704E+00  -3.7205225547E+01   4.0769886065E+01   1.0000000000E+00     0.000  -1.
3000022   2   4   0   0   0   2.7998187826E+01   -5.2899379243E+00   -9.4433259172E+01   9.8638658256E+01   2.5000000000E-01   5.505327E+00   0.
3000001    1    5    0    0    0  -3.0951030015E+01   6.5705116130E+00  -7.8631128809E+00   3.2618498219E+01   1.0000000000E+00     0.000   1.
3000022   2   5   0   0   0   -1.2076978077E+01   5.8650056818E+00   2.2497548002E+00   1.3615270389E+01   2.5000000000E-01   4.093827E-01   0.
13    1    7    0    0    0   1.0495401695E+01  -1.9924060937E+00  -3.5200097382E+01   3.6785608864E+01   1.0500000000E-01     0.000  -1.
-13    1    7    0    0    0   1.7502786132E+01  -3.2975318306E+00  -5.9233161789E+01   6.1853049392E+01   1.0500000000E-01     0.000   1.
13    1    9    0    0    0  -6.6503711825E+00   3.2948399516E+00   1.2754568872E+00   7.5313493109E+00   1.0500000000E-01     0.000  -1.
-13    1    9    0    0    0  -5.4266068943E+00   2.5701657301E+00   9.7429791300E-01   6.0839210785E+00   1.0500000000E-01     0.000   1.
</event>
<event>
 13   1  9.2978750E-05  1.2500000E+02  7.5467720E-03  1.2380620E-01
   21   -1    0    0  502  501   0.0000000000E+00   0.0000000000E+00   1.9870432936E+02   1.9870432936E+02   0.0000000000E+00     0.000   1.
   21   -1    0    0  501  502   0.0000000000E+00   0.0000000000E+00  -1.9658605389E+01   1.9658605389E+01   0.0000000000E+00     0.000   1.
   25    2    1    2    0    0   0.0000000000E+00   0.0000000000E+00   1.7904572397E+02   2.1836293475E+02   1.2500000000E+02  1.830E-08  -1.
3000002    2    3    0    0    0  -5.4871756364E+00  -4.7526869823E+01   2.1475700772E+01   5.3386498062E+01   1.0000000000E+01  7.732E-10   1.
3000002    2    3    0    0    0   5.4871756364E+00   4.7526869823E+01   1.5757002320E+02   1.6497643669E+02   1.0000000000E+01  4.007E-10   1.
3000001    1    4    0    0    0   1.6567400599E+00  -9.1533264326E+00   7.2698713989E+00   1.1848172963E+01   1.0000000000E+00     0.000  -1.
3000022   2   4   0   0   0   -7.1439156963E+00   -3.8373543391E+01   1.4205829373E+01   4.1538325099E+01   2.5000000000E-01   8.183629E+00   0.
3000001    1    5    0    0    0   7.2746943157E+00   3.3150270827E+01   1.1993396626E+02   1.2464757477E+02   1.0000000000E+00     0.000   1.
3000022   2   5   0   0   0   -1.7875186794E+00   1.4376598997E+01   3.7636056938E+01   4.0328861918E+01   2.5000000000E-01   5.840101E+00   0.
13    1    7    0    0    0  -3.7422304965E+00  -1.9731350967E+01   7.3092923947E+00   2.1372114551E+01   1.0500000000E-01     0.000   1.
-13    1    7    0    0    0  -3.4016851998E+00  -1.8642192424E+01   6.8965369786E+00   2.0166210548E+01   1.0500000000E-01     0.000  -1.
13    1    9    0    0    0  -1.2357224348E+00   1.0159474483E+01   2.6681272086E+01   2.8576970393E+01   1.0500000000E-01     0.000  -1.
-13    1    9    0    0    0  -5.5179624454E-01   4.2171245135E+00   1.0954784852E+01   1.1751891525E+01   1.0500000000E-01     0.000   1.
</event>
<event>
 13   1  9.2978750E-05  1.2500000E+02  7.5467720E-03  1.2380620E-01
   21   -1    0    0  502  501   0.0000000000E+00   0.0000000000E+00   8.4861546684E+02   8.4861546684E+02   0.0000000000E+00     0.000   1.
   21   -1    0    0  501  502   0.0000000000E+00   0.0000000000E+00  -4.6030860297E+00   4.6030860297E+00   0.0000000000E+00     0.000   1.
   25    2    1    2    0    0   0.0000000000E+00   0.0000000000E+00   8.4401238081E+02   8.5321855287E+02   1.2500000000E+02  5.725E-09  -1.
3000002    2    3    0    0    0  -4.8076433355E+01  -2.1196515384E+01   2.0128906427E+02   2.0827367357E+02   1.0000000000E+01  2.393E-09  -1.
3000002    2    3    0    0    0   4.8076433355E+01   2.1196515384E+01   6.4272331654E+02   6.4494487930E+02   1.0000000000E+01  6.813E-10  -1.
3000001    1    4    0    0    0  -4.8311707587E+01  -2.1612469515E+01   1.9880517724E+02   2.0573190911E+02   1.0000000000E+00     0.000  -1.
3000022   2   4   0   0   0   2.3527423240E-01   4.1595413156E-01   2.4838870304E+00   2.5417644627E+00   2.5000000000E-01   1.926285E+00   0.
3000001    1    5    0    0    0   1.9435219058E+01   1.3937591913E+01   2.8776027752E+02   2.8875415413E+02   1.0000000000E+00     0.000  -1.
3000022   2   5   0   0   0   2.8641214297E+01   7.2589234709E+00   3.5496303901E+02   3.5619072516E+02   2.5000000000E-01   7.406239E-01   0.
13    1    7    0    0    0   1.6263293165E-01   1.7016681998E-01   1.3637733336E+00   1.3879153153E+00   1.0500000000E-01     0.000  -1.
-13    1    7    0    0    0   7.2641300753E-02   2.4578731158E-01   1.1201136968E+00   1.1538491474E+00   1.0500000000E-01     0.000   1.
13    1    9    0    0    0   6.5835886596E+00   1.6650740884E+00   8.1527141783E+01   8.1809547020E+01   1.0500000000E-01     0.000  -1.
-13    1    9    0    0    0   2.2057625637E+01   5.5938493824E+00   2.7343589723E+02   2.7438117814E+02   1.0500000000E-01     0.000   1.
</event>
<event>
 13   1  9.2978750E-05  1.2500000E+02  7.5467720E-03  1.2380620E-01
   21   -1    0    0  502  501   0.0000000000E+00   0.0000000000E+00   4.3050319051E+01   4.3050319051E+01   0.0000000000E+00     0.000  -1.
   21   -1    0    0  501  502   0.0000000000E+00   0.0000000000E+00  -9.0736842052E+01   9.0736842052E+01   0.0000000000E+00     0.000  -1.
   25    2    1    2    0    0   0.0000000000E+00   0.0000000000E+00  -4.7686523001E+01   1.3378716110E+02   1.2500000000E+02  6.752E-08  -1.
3000002    2    3    0    0    0  -4.7664832721E+01  -3.5926181798E+01  -7.1375979045E+00   6.0939085330E+01   1.0000000000E+01  8.179E-10  -1.
3000002    2    3    0    0    0   4.7664832721E+01   3.5926181798E+01  -4.0548925096E+01   7.2848075770E+01   1.0000000000E+01  2.599E-09  -1.
3000001    1    4    0    0    0  -4.2124434271E+01  -3.0069710787E+01  -9.2869251710E+00   5.2591847739E+01   1.0000000000E+00     0.000  -1.
3000022   2   4   0   0   0   -5.5403984503E+00   -5.8564710118E+00   2.1493272665E+00   8.3472375909E+00   2.5000000000E-01   1.199687E+00   1.
3000001    1    5    0    0    0   1.9823621465E+01   9.4044447411E+00  -1.2715857859E+01   2.5379373317E+01   1.0000000000E+00     0.000  -1.
3000022   2   5   0   0   0   2.7841211256E+01   2.6521737057E+01   -2.7833067237E+01   4.7468702453E+01   2.5000000000E-01   3.917007E-01   0.
13    1    7    0    0    0  -2.2416842583E+00  -2.4468765018E+00   8.4762945006E-01   3.4266388216E+00   1.0500000000E-01     0.000   1.
-13    1    7    0    0    0  -3.2987141920E+00  -3.4095945100E+00   1.3016978164E+00   4.9205987693E+00   1.0500000000E-01     0.000   1.
13    1    9    0    0    0   7.8003867516E+00   7.3770398618E+00  -7.7797247701E+00   1.3259030624E+01   1.0500000000E-01     0.000  -1.
-13    1    9    0    0    0   2.0040824505E+01   1.9144697196E+01  -2.0053342467E+01   3.4209671829E+01   1.0500000000E-01     0.000   1.
</event>
<event>
 13   1  9.2978750E-05  1.2500000E+02  7.5467720E-03  1.2380620E-01
   21   -1    0    0  502  501   0.0000000000E+00   0.0000000000E+00   9.7357155804E+00   9.7357155804E+00   0.0000000000E+00     0.000   1.
   21   -1    0    0  501  502   0.0000000000E+00   0.0000000000E+00  -4.0122885347E+02   4.0122885347E+02   0.0000000000E+00     0.000   1.
   25    2    1    2    0    0   0.0000000000E+00   0.0000000000E+00  -3.9149313789E+02   4.1096456905E+02   1.2500000000E+02  2.573E-09  -1.
3000002    2    3    0    0    0   4.2934298769E+01  -4.2713095901E+01  -1.5705649654E+02   1.6862534115E+02   1.0000000000E+01  2.010E-09   1.
3000002    2    3    0    0    0  -4.2934298769E+01   4.2713095901E+01  -2.3443664135E+02   2.4233922790E+02   1.0000000000E+01  6.723E-11   1.
3000001    1    4    0    0    0   1.0904002668E+01  -1.7296407589E+01  -5.0341861824E+01   5.4344880546E+01   1.0000000000E+00     0.000  -1.
3000022   2   4   0   0   0   3.2030296101E+01   -2.5416688312E+01   -1.0671463471E+02   1.1428046060E+02   2.5000000000E-01   1.119254E+00   0.
3000001    1    5    0    0    0  -3.1003794446E+01   3.4745006790E+01  -1.6576138775E+02   1.7218097582E+02   1.0000000000E+00     0.000   1.
3000022   2   5   0   0   0   -1.1930504322E+01   7.9680891108E+00   -6.8675253606E+01   7.0158252083E+01   2.5000000000E-01   5.946720E+00   0.
13    1    7    0    0    0   2.4471878556E+01  -1.9415826605E+01  -8.1569543139E+01   8.7346714624E+01   1.0500000000E-01     0.000  -1.
-13    1    7    0    0    0   7.5584175450E+00  -6.0008617068E+00  -2.5145091575E+01   2.6933745976E+01   1.0500000000E-01     0.000   1.
13    1    9    0    0    0  -5.2392370583E+00   3.4354062076E+00  -3.0182129369E+01   3.0825696732E+01   1.0500000000E-01     0.000  -1.
-13    1    9    0    0    0  -6.6912672640E+00   4.5326829032E+00  -3.8493124236E+01   3.9332555350E+01   1.0500000000E-01     0.000   1.
</event>
<event>
 13   1  9.2978750E-05  1.2500000E+02  7.5467720E-03  1.2380620E-01
   21   -1    0    0  502  501   0.0000000000E+00   0.0000000000E+00   9.3534039619E+00   9.3534039619E+00   0.0000000000E+00     0.000  -1.
   21   -1    0    0  501  502   0.0000000000E+00   0.0000000000E+00  -4.1762870672E+02   4.1762870672E+02   0.0000000000E+00     0.000  -1.
   25    2    1    2    0    0   0.0000000000E+00   0.0000000000E+00  -4.0827530275E+02   4.2698211068E+02   1.2500000000E+02  1.844E-08  -1.
3000002    2    3    0    0    0  -5.3735486440E+01   2.8733472779E+01  -2.3710288973E+02   2.4501203089E+02   1.0000000000E+01  9.325E-10  -1.
3000002    2    3    0    0    0   5.3735486440E+01  -2.8733472779E+01  -1.7117241302E+02   1.8197007979E+02   1.0000000000E+01  6.802E-10  -1.
3000001    1    4    0    0    0  -4.7035656445E+01   2.1015849894E+01  -1.9750342514E+02   2.0411423730E+02   1.0000000000E+00     0.000  -1.
3000022   2   4   0   0   0   -6.6998299950E+00   7.7176228843E+00   -3.9599464585E+01   4.0897793588E+01   2.5000000000E-01   2.479572E+01   0.
3000001    1    5    0    0    0   4.9597324367E+01  -2.3014267176E+01  -1.5187899234E+02   1.6142422183E+02   1.0000000000E+00     0.000  -1.
3000022   2   5   0   0   0   4.1381620737E+00   -5.7192056021E+00   -1.9293420681E+01   2.0545857968E+01   2.5000000000E-01   1.670402E+00   0.
13    1    7    0    0    0  -2.8627590337E+00   3.2028519666E+00  -1.6571027559E+01   1.7119101301E+01   1.0500000000E-01     0.000  -1.
-13    1    7    0    0    0  -3.8370709613E+00   4.5147709177E+00  -2.3028437026E+01   2.3778692287E+01   1.0500000000E-01     0.000   1.
13    1    9    0    0    0   1.7535120002E+00  -2.3844470527E+00  -7.9147760460E+00   8.4507453482E+00   1.0500000000E-01     0.000   1.
-13    1    9    0    0    0   2.3846500735E+00  -3.3347585494E+00  -1.1378644635E+01   1.2095112620E+01   1.0500000000E-01     0.000  -1.
</event>
<event>
 13   1  9.2978750E-05  1.2500000E+02  7.5467720E-03  1.2380620E-01
   21   -1    0    0  502  501   0.0000000000E+00   0.0000000000E+00   9.6229976717E+00   9.6229976717E+00   0.0000000000E+00     0.000   1.
   21   -1    0    0  501  502   0.0000000000E+00   0.0000000000E+00  -4.0592860284E+02   4.0592860284E+02   0.0000000000E+00     0.000   1.
   25    2    1    2    0    0   0.0000000000E+00   0.0000000000E+00  -3.9630560517E+02   4.1555160051E+02   1.2500000000E+02  9.623E-09  -1.
3000002    2    3    0    0    0  -4.2267775364E+01  -3.0362503845E+01  -8.8004640007E+01   1.0272907639E+02   1.0000000000E+01  1.313E-10   1.
3000002    2    3    0    0    0   4.2267775364E+01   3.0362503845E+01  -3.0830096516E+02   3.1282252412E+02   1.0000000000E+01  7.233E-10   1.
3000001    1    4    0    0    0  -2.7402999366E+01  -2.1021616848E+01  -4.9022407317E+01   5.9975237959E+01   1.0000000000E+00     0.000   1.
3000022   2   4   0   0   0   -1.4864775999E+01   -9.3408869968E+00   -3.8982232691E+01   4.2753838435E+01   2.5000000000E-01   1.294041E+00   0.
3000001    1    5    0    0    0   7.1182007083E+00   1.2854825219E+00  -3.7131682254E+01   3.7842873485E+01   1.0000000000E+00     0.000  -1.
3000022   2   5   0   0   0   3.5149574656E+01   2.9077021323E+01   -2.7116928291E+02   2.7497965063E+02   2.5000000000E-01   4.413012E-01   0.
13    1    7    0    0    0  -5.7158025693E+00  -3.5789528665E+00  -1.5122216740E+01   1.6558132949E+01   1.0500000000E-01     0.000   1.
-13    1    7    0    0    0  -9.1489734296E+00  -5.7619341303E+00  -2.3860015951E+01   2.6195705486E+01   1.0500000000E-01     0.000  -1.
13    1    9    0    0    0   8.5871261525E+00   7.0999657954E+00  -6.6371052753E+01   6.7299895381E+01   1.0500000000E-01     0.000   1.
-13    1    9    0    0    0   2.6562448504E+01   2.1977055527E+01  -2.0479823016E+02   2.0767975525E+02   1.0500000000E-01     0.000  -1.
</event>
<event>
 13   1  9.2978750E-05  1.2500000E+02  7.5467720E-03  1.2380620E-01
   21   -1    0    0  502  501   0.0000000000E+00   0.0000000000E+00   9.4174991875E+02   9.4174991875E+02   0.0000000000E+00     0.000   1.
   21   -1    0    0  501  502   0.0000000000E+00   0.0000000000E+00  -4.1478633788E+00   4.1478633788E+00   0.0000000000E+00     0.000   1.
   25    2    1    2    0    0   0.0000000000E+00   0.0000000000E+00   9.3760205537E+02   9.4589778213E+02   1.2500000000E+02  4.553E-08  -1.
3000002    2    3    0    0    0  -9.2461127709E+00  -1.6295970902E+01   2.3994824070E+01   3.2043733415E+01   1.0000000000E+01  9.302E-10   1.
3000002    2    3    0    0    0   9.2461127709E+00   1.6295970902E+01   9.1360723130E+02   9.1385404872E+02   1.0000000000E+01  2.635E-10   1.
3000001    1    4    0    0    0  -3.2803716033E+00  -2.9518057835E+00   1.2960743850E+01   1.3727886814E+01   1.0000000000E+00     0.000   1.
3000022   2   4   0   0   0   -5.9657411676E+00   -1.3344165119E+01   1.1034080220E+01   1.8315846601E+01   2.5000000000E-01   1.683514E+00   0.
3000001    1    5    0    0    0   1.5237986581E+00   6.9218616764E+00   5.4433405558E+02   5.4438111485E+02   1.0000000000E+00     0.000  -1.
3000022   2   5   0   0   0   7.7223141127E+00   9.3741092260E+00   3.6927317572E+02   3.6947293387E+02   2.5000000000E-01   7.009722E+00   0.
13    1    7    0    0    0  -2.4978672592E+00  -5.4802603270E+00   4.4876548414E+00   7.5115021848E+00   1.0500000000E-01     0.000   1.
-13    1    7    0    0    0  -3.4678739084E+00  -7.8639047919E+00   6.5464253783E+00   1.0804344416E+01   1.0500000000E-01     0.000  -1.
13    1    9    0    0    0   3.0441479528E+00   3.7230372330E+00   1.4440746095E+02   1.4448755533E+02   1.0500000000E-01     0.000  -1.
-13    1    9    0    0    0   4.6781661599E+00   5.6510719930E+00   2.2486571476E+02   2.2498537853E+02   1.0500000000E-01     0.000   1.
</event>
<event>
 13   1  9.2978750E-05  1.2500000E+02  7.5467720E-03  1.2380620E-01
   21   -1    0    0  502  501   0.0000000000E+00   0.0000000000E+00   5.8562308980E+01   5.8562308980E+01   0.0000000000E+00     0.000  -1.
   21   -1    0    0  501  502   0.0000000000E+00   0.0000000000E+00  -6.6702458767E+01   6.6702458767E+01   0.0000000000E+00     0.000  -1.
   25    2    1    2    0    0   0.0000000000E+00   0.0000000000E+00  -8.1401497871E+00   1.2526476775E+02   1.2500000000E+02  1.550E-08  -1.
3000002    2    3    0    0    0   2.1501950199E+01  -1.1222343283E+01   5.2777280745E+01   5.8938240676E+01   1.0000000000E+01  8.178E-11   1.
3000002    2    3    0    0    0  -2.1501950199E+01   1.1222343283E+01  -6.0917430532E+01   6.6326527074E+01   1.0000000000E+01  4.859E-11   1.
3000001    1    4    0    0    0   1.7672973181E+01  -1.1605950984E+01   4.9648813778E+01   5.3972555886E+01   1.0000000000E+00     0.000   1.
3000022   2   4   0   0   0   3.8289770176E+00   3.8360770032E-01   3.1284669671E+00   4.9656847899E+00   2.5000000000E-01   4.318041E+00   0.
3000001    1    5    0    0    0  -4.7423230877E+00   7.1431730657E+00  -2.5701400355E+01   2.7112294812E+01   1.0000000000E+00     0.000  -1.
3000022   2   5   0   0   0   -1.6759627111E+01   4.0791702177E+00   -3.5216030177E+01   3.9214232263E+01   2.5000000000E-01   4.074974E-02   0.
13    1    7    0    0    0   2.6111395655E+00   3.0399802894E-01   2.1693709209E+00   3.4099354576E+00   1.0500000000E-01     0.000   1.
-13    1    7    0    0    0   1.2178374520E+00   7.9609671380E-02   9.5909604616E-01   1.5557493324E+00   1.0500000000E-01     0.000  -1.
13    1    9    0    0    0  -5.9614340851E+00   1.3962241632E+00  -1.2452517564E+01   1.3876755995E+01   1.0500000000E-01     0.000  -1.
-13    1    9    0    0    0  -1.0798193026E+01   2.6829460545E+00  -2.2763512613E+01   2.5337476268E+01   1.0500000000E-01     0.000   1.
</event>
<event>
 13   1  9.2978750E-05  1.2500000E+02  7.5467720E-03  1.2380620E-01
   21   -1    0    0  502  501   0.0000000000E+00   0.0000000000E+00   6.4464102994E+01   6.4464102994E+01   0.0000000000E+00     0.000  -1.
   21   -1    0    0  501  502   0.0000000000E+00   0.0000000000E+00  -6.0595739622E+01   6.0595739622E+01   0.0000000000E+00     0.000  -1.
   25    2    1    2    0    0   0.0000000000E+00   0.0000000000E+00   3.8683633725E+00   1.2505984262E+02   1.2500000000E+02  4.752E-08  -1.
3000002    2    3    0    0    0   4.6234358403E+01  -8.9666548050E-01  -3.8924445232E+01   6.1266078237E+01   1.0000000000E+01  9.612E-11  -1.
3000002    2    3    0    0    0  -4.6234358403E+01   8.9666548050E-01   4.2792808605E+01   6.3793764383E+01   1.0000000000E+01  1.633E-09  -1.
3000001    1    4    0    0    0   2.6511114774E+01   2.7826785002E+00  -2.6848542515E+01   3.7847413932E+01   1.0000000000E+00     0.000  -1.
3000022   2   4   0   0   0   1.9723243629E+01   -3.6793439807E+00   -1.2075902717E+01   2.3418664304E+01   2.5000000000E-01   6.005701E-01   0.
3000001    1    5    0    0    0  -4.2945338943E+01   5.0928523551E-03   3.5452816315E+01   5.5697435736E+01   1.0000000000E+00     0.000  -1.
3000022   2   5   0   0   0   -3.2890194598E+00   8.9157262814E-01   7.3399922891E+00   8.0963286472E+00   2.5000000000E-01   1.805966E+00   0.
13    1    7    0    0    0   5.1048684493E+00  -9.5213455049E-01  -3.1622379668E+00   6.0808729674E+00   1.0500000000E-01     0.000   1.
-13    1    7    0    0    0   1.4618375180E+01  -2.7272094302E+00  -8.9136647502E+00   1.7337791337E+01   1.0500000000E-01     0.000  -1.
13    1    9    0    0    0  -1.5599560826E+00   4.1557721217E-01   3.3191391949E+00   3.6924080753E+00   1.0500000000E-01     0.000   1.
-13    1    9    0    0    0  -1.7290633772E+00   4.7599541598E-01   4.0208530942E+00   4.4039205719E+00   1.0500000000E-01     0.000  -1.
</event>
<event>
 13   1  9.2978750E-05  1.2500000E+02  7.5467720E-03  1.2380620E-01
   21   -1    0    0  502  501   0.0000000000E+00   0.0000000000E+00   1.7298553342E+02   1.7298553342E+02   0.0000000000E+00     0.000  -1.
   21   -1    0    0  501  502   0.0000000000E+00   0.0000000000E+00  -2.2581368064E+01   2.2581368064E+01   0.0000000000E+00     0.000  -1.
   25    2    1    2    0    0   0.0000000000E+00   0.0000000000E+00   1.5040416536E+02   1.9556690149E+02   1.2500000000E+02  7.294E-09  -1.
3000002    2    3    0    0    0  -5.7625491535E+01  -1.1751595109E+01   1.0436515072E+02   1.2021182116E+02   1.0000000000E+01  1.285E-10  -1.
3000002    2    3    0    0    0   5.7625491535E+01   1.1751595109E+01   4.6039014643E+01   7.5355080330E+01   1.0000000000E+01  7.962E-12  -1.
3000001    1    4    0    0    0  -5.3206731719E+01  -7.9691133111E+00   9.5158629303E+01   1.0931892699E+02   1.0000000000E+00     0.000  -1.
3000022   2   4   0   0   0   -4.4187598168E+00   -3.7824817978E+00   9.2065214137E+00   1.0892894171E+01   2.5000000000E-01   9.345157E-01   0.
3000001    1    5    0    0    0   5.0354465981E+01   1.1595638347E+01   3.6120211742E+01   6.3053158281E+01   1.0000000000E+00     0.000  -1.
3000022   2   5   0   0   0   7.2710255548E+00   1.5595676163E-01   9.9188029009E+00   1.2301922050E+01   2.5000000000E-01   1.417964E+00   0.
13    1    7    0    0    0  -2.4425608131E+00  -2.1742838024E+00   5.1393475832E+00   6.0924159378E+00   1.0500000000E-01     0.000   1.
-13    1    7    0    0    0  -1.9761990037E+00  -1.6081979953E+00   4.0671738306E+00   4.8004782327E+00   1.0500000000E-01     0.000  -1.
13    1    9    0    0    0   3.1931388993E+00   1.3460781800E-01   4.3570386911E+00   5.4045412803E+00   1.0500000000E-01     0.000   1.
-13    1    9    0    0    0   4.0778866554E+00   2.1348943629E-02   5.5617642098E+00   6.8973807694E+00   1.0500000000E-01     0.000  -1.
</event>
<event>
 13   1  9.2978750E-05  1.2500000E+02  7.5467720E-03  1.2380620E-01
   21   -1    0    0  502  501   0.0000000000E+00   0.0000000000E+00   4.8378755995E+01   4.8378755995E+01   0.0000000000E+00     0.000  -1.
   21   -1    0    0  501  502   0.0000000000E+00   0.0000000000E+00  -8.0743084845E+01   8.0743084845E+01   0.0000000000E+00     0.000  -1.
   25    2    1    2    0    0   0.0000000000E+00   0.0000000000E+00  -3.2364328849E+01   1.2912184084E+02   1.2500000000E+02  2.081E-08  -1.
3000002    2    3    0    0    0   5.8888963410E+01   1.1507909257E+01  -3.1004830328E+01   6.8276214677E+01   1.0000000000E+01  4.303E-11   1.
3000002    2    3    0    0    0  -5.8888963410E+01  -1.1507909257E+01  -1.3594985214E+00   6.0845626163E+01   1.0000000000E+01  6.586E-10   1.
3000001    1    4    0    0    0   2.6606776451E+01   9.8768258658E+00  -1.2477880838E+01   3.1018861238E+01   1.0000000000E+00     0.000  -1.
3000022   2   4   0   0   0   3.2282186959E+01   1.6310833910E+00   -1.8526949489E+01   3.7257353438E+01   2.5000000000E-01   1.673710E+00   0.
3000001    1    5    0    0    0  -5.0869713204E+01  -8.9076692856E+00   2.1791726185E+00   5.1699352867E+01   1.0000000000E+00     0.000   1.
3000022   2   5   0   0   0   -8.0192502058E+00   -2.6002399711E+00   -3.5386711399E+00   9.1462732960E+00   2.5000000000E-01   8.805147E+00   0.
13    1    7    0    0    0   1.8145925392E+01   8.6094694954E-01  -1.0453025594E+01   2.0959308363E+01   1.0500000000E-01     0.000   1.
-13    1    7    0    0    0   1.4136261566E+01   7.7013644143E-01  -8.0739238952E+00   1.6298045075E+01   1.0500000000E-01     0.000  -1.
13    1    9    0    0    0  -4.6090968161E+00  -1.4268298796E+00  -2.0124981261E+00   5.2288421924E+00   1.0500000000E-01     0.000  -1.
-13    1    9    0    0    0  -3.4101533896E+00  -1.1734100915E+00  -1.5261730138E+00   3.9174311036E+00   1.0500000000E-01     0.000   1.
</event>
<event>
 13   1  9.2978750E-05  1.2500000E+02  7.5467720E-03  1.2380620E-01
   21   -1    0    0  502  501   0.0000000000E+00   0.0000000000E+00   4.2276447527E+01   4.2276447527E+01   0.0000000000E+00     0.000   1.
   21   -1    0    0  501  502   0.0000000000E+00   0.0000000000E+00  -9.2397782418E+01   9.2397782418E+01   0.0000000000E+00     0.000   1.
   25    2    1    2    0    0   0.0000000000E+00   0.0000000000E+00  -5.0121334891E+01   1.3467422994E+02   1.2500000000E+02  7.387E-08  -1.
3000002    2    3    0    0    0   2.7890394408E+01   4.1111606125E+01   1.4352097747E+01   5.2668975386E+01   1.0000000000E+01  4.234E-10   1.
3000002    2    3    0    0    0  -2.7890394408E+01  -4.1111606125E+01  -6.4473432638E+01   8.2005254554E+01   1.0000000000E+01  3.915E-10   1.
3000001    1    4    0    0    0   2.0644163026E+01   3.0289541272E+01   5.9004044957E+00   3.7140982091E+01   1.0000000000E+00     0.000   1.
3000022   2   4   0   0   0   7.2462313825E+00   1.0822064853E+01   8.4516932510E+00   1.5527993294E+01   2.5000000000E-01   4.196696E+00   0.
3000001    1    5    0    0    0  -1.2842893555E+01  -2.5620999800E+01  -4.1804098201E+01   5.0694754877E+01   1.0000000000E+00     0.000   1.
3000022   2   5   0   0   0   -1.5047500854E+01   -1.5490606325E+01   -2.2669334436E+01   3.1310499677E+01   2.5000000000E-01   3.891429E-01   1.
13    1    7    0    0    0   2.5194514191E+00   3.7892421198E+00   3.0182515610E+00   5.4613971455E+00   1.0500000000E-01     0.000  -1.
-13    1    7    0    0    0   4.7267799633E+00   7.0328227334E+00   5.4334416901E+00   1.0066596149E+01   1.0500000000E-01     0.000   1.
13    1    9    0    0    0  -8.9087792788E+00  -9.2610021296E+00  -1.3504053434E+01   1.8641432156E+01   1.0500000000E-01     0.000   1.
-13    1    9    0    0    0  -6.1387215748E+00  -6.2296041952E+00  -9.1652810028E+00   1.2669067521E+01   1.0500000000E-01     0.000   1.
</event>
<event>
 13   1  9.2978750E-05  1.2500000E+02  7.5467720E-03  1.2380620E-01
   21   -1    0    0  502  501   0.0000000000E+00   0.0000000000E+00   5.2425445072E+02   5.2425445072E+02   0.0000000000E+00     0.000   1.
   21   -1    0    0  501  502   0.0000000000E+00   0.0000000000E+00  -7.4510573914E+00   7.4510573914E+00   0.0000000000E+00     0.000   1.
   25    2    1    2    0    0   0.0000000000E+00   0.0000000000E+00   5.1680339333E+02   5.3170550811E+02   1.2500000000E+02  5.300E-09  -1.
3000002    2    3    0    0    0   3.3132362183E+01  -2.6194567059E+01   4.4968997774E+02   4.5177979686E+02   1.0000000000E+01  7.204E-10   1.
3000002    2    3    0    0    0  -3.3132362183E+01   2.6194567059E+01   6.7113415586E+01   7.9925711251E+01   1.0000000000E+01  3.836E-10   1.
3000001    1    4    0    0    0   1.6187228546E+01  -1.3165453353E+01   1.7099528898E+02   1.7226649234E+02   1.0000000000E+00     0.000   1.
3000022   2   4   0   0   0   1.6945133637E+01   -1.3029113706E+01   2.7869468876E+02   2.7951330451E+02   2.5000000000E-01   5.421592E+00   0.
3000001    1    5    0    0    0  -1.1189795800E+01   3.3646497727E+00   1.7365836216E+01   2.0954824399E+01   1.0000000000E+00     0.000  -1.
3000022   2   5   0   0   0   -2.1942566383E+01   2.2829917286E+01   4.9747579371E+01   5.8970886851E+01   2.5000000000E-01   2.264984E-01   0.
13    1    7    0    0    0   5.1755659574E+00  -4.0266270858E+00   8.5118091649E+01   8.5370374016E+01   1.0500000000E-01     0.000   1.
-13    1    7    0    0    0   1.1769567680E+01  -9.0024866198E+00   1.9357659711E+02   1.9414293050E+02   1.0500000000E-01     0.000  -1.
13    1    9    0    0    0  -1.0595953877E+01   1.0983943548E+01   2.4091700167E+01   2.8519156656E+01   1.0500000000E-01     0.000   1.
-13    1    9    0    0    0  -1.1346612506E+01   1.1845973738E+01   2.5655879204E+01   3.0451730195E+01   1.0500000000E-01     0.000  -1.
</event>
<event>
 13   1  9.2978750E-05  1.2500000E+02  7.5467720E-03  1.2380620E-01
   21   -1    0    0  502  501   0.0000000000E+00   0.0000000000E+00   1.6058414016E+02   1.6058414016E+02   0.0000000000E+00     0.000  -1.
   21   -1    0    0  501  502   0.0000000000E+00   0.0000000000E+00  -2.4325254014E+01   2.4325254014E+01   0.0000000000E+00     0.000  -1.
   25    2    1    2    0    0   0.0000000000E+00   0.0000000000E+00   1.3625888615E+02   1.8490939417E+02   1.2500000000E+02  2.601E-09  -1.
3000002    2    3    0    0    0  -5.1058636628E+01  -3.1408566569E+01   4.6551915479E+01   7.6554315770E+01   1.0000000000E+01  5.179E-10   1.
3000002    2    3    0    0    0   5.1058636628E+01   3.1408566569E+01   8.9706970671E+01   1.0835507840E+02   1.0000000000E+01  1.504E-09   1.
3000001    1    4    0    0    0  -2.5167750334E+01  -2.1211067787E+01   2.4324868855E+01   4.0939275743E+01   1.0000000000E+00     0.000  -1.
3000022   2   4   0   0   0   -2.5890886294E+01   -1.0197498782E+01   2.2227046625E+01   3.5615040027E+01   2.5000000000E-01   2.499387E+00   0.
3000001    1    5    0    0    0   2.3359469418E+01   1.8970482506E+01   5.0046578715E+01   5.8405513944E+01   1.0000000000E+00     0.000  -1.
3000022   2   5   0   0   0   2.7699167210E+01   1.2438084063E+01   3.9660391955E+01   4.9949564456E+01   2.5000000000E-01   1.267908E+01   0.
13    1    7    0    0    0  -9.5661787590E+00  -3.7357235721E+00   8.1375666179E+00   1.3103374455E+01   1.0500000000E-01     0.000   1.
-13    1    7    0    0    0  -1.6324707535E+01  -6.4617752097E+00   1.4089480007E+01   2.2511665572E+01   1.0500000000E-01     0.000  -1.
13    1    9    0    0    0   1.9840356519E+01   8.8709303769E+00   2.8351061216E+01   3.5722917709E+01   1.0500000000E-01     0.000  -1.
-13    1    9    0    0    0   7.8588106913E+00   3.5671536859E+00   1.1309330739E+01   1.4226646747E+01   1.0500000000E-01     0.000   1.
</event>
<event>
 13   1  9.2978750E-05  1.2500000E+02  7.5467720E-03  1.2380620E-01
   21   -1    0    0  502  501   0.0000000000E+00   0.0000000000E+00   2.2666242263E+01   2.2666242263E+01   0.0000000000E+00     0.000  -1.
   21   -1    0    0  501  502   0.0000000000E+00   0.0000000000E+00  -1.7233778562E+02   1.7233778562E+02   0.0000000000E+00     0.000  -1.
   25    2    1    2    0    0   0.0000000000E+00   0.0000000000E+00  -1.4967154336E+02   1.9500402789E+02   1.2500000000E+02  4.988E-09  -1.
3000002    2    3    0    0    0  -3.5531326149E+01  -4.6976426310E+01  -1.0347374145E+02   1.1948252984E+02   1.0000000000E+01  5.302E-10  -1.
3000002    2    3    0    0    0   3.5531326149E+01   4.6976426310E+01  -4.6197801911E+01   7.5521498053E+01   1.0000000000E+01  3.462E-12  -1.
3000001    1    4    0    0    0  -6.2645433064E-01  -2.8753581222E-04  -1.5087791061E+00   1.9154267154E+00   1.0000000000E+00     0.000   1.
3000022   2   4   0   0   0   -3.4904871819E+01   -4.6976138774E+01   -1.0196496234E+02   1.1756710312E+02   2.5000000000E-01   8.661463E+00   0.
3000001    1    5    0    0    0   7.5803833179E+00   5.0125883295E+00  -5.0721946202E+00   1.0455401057E+01   1.0000000000E+00     0.000  -1.
3000022   2   5   0   0   0   2.7950942831E+01   4.1963837980E+01   -4.1125607291E+01   6.5066096996E+01   2.5000000000E-01   1.430244E+00   0.
13    1    7    0    0    0  -2.0565647850E+01  -2.7728260239E+01  -6.0260618085E+01   6.9448940988E+01   1.0500000000E-01     0.000   1.
-13    1    7    0    0    0  -1.4339223968E+01  -1.9247878535E+01  -4.1704344258E+01   4.8118162133E+01   1.0500000000E-01     0.000  -1.
13    1    9    0    0    0   2.1516475024E+01   3.2295415656E+01  -3.1644832931E+01   5.0073536384E+01   1.0500000000E-01     0.000   1.
-13    1    9    0    0    0   6.4344678079E+00   9.6684223246E+00  -9.4807743603E+00   1.4992560611E+01   1.0500000000E-01     0.000  -1.
</event>
<event>
 13   1  9.2978750E-05  1.2500000E+02  7.5467720E-03  1.2380620E-01
   21   -1    0    0  502  501   0.0000000000E+00   0.0000000000E+00   2.2362846971E+01   2.2362846971E+01   0.0000000000E+00     0.000   1.
   21   -1    0    0  501  502   0.0000000000E+00   0.0000000000E+00  -1.7467588116E+02   1.7467588116E+02   0.0000000000E+00     0.000   1.
   25    2    1    2    0    0   0.0000000000E+00   0.0000000000E+00  -1.5231303419E+02   1.9703872813E+02   1.2500000000E+02  7.369E-08  -1.
3000002    2    3    0    0    0  -2.0909375009E+01   2.6038061122E+01   5.6153418578E+00   3.5308846688E+01   1.0000000000E+01  8.052E-10  -1.
3000002    2    3    0    0    0   2.0909375009E+01  -2.6038061122E+01  -1.5792837605E+02   1.6172988144E+02   1.0000000000E+01  3.007E-10  -1.
3000001    1    4    0    0    0  -1.6393624223E+01   2.5259691561E+01   5.9343251599E+00   3.0708616837E+01   1.0000000000E+00     0.000  -1.
3000022   2   4   0   0   0   -4.5157507859E+00   7.7836956035E-01   -3.1898330205E-01   4.6002298507E+00   2.5000000000E-01   1.735030E-01   0.
3000001    1    5    0    0    0   6.9990042850E+00  -2.6809080092E+00  -3.9990405206E+01   4.0698966047E+01   1.0000000000E+00     0.000  -1.
3000022   2   5   0   0   0   1.3910370724E+01   -2.3357153113E+01   -1.1793797084E+02   1.2103091540E+02   2.5000000000E-01   1.162385E+00   0.
13    1    7    0    0    0  -3.1562595011E+00   5.1586417014E-01  -2.5978589976E-01   3.2103899443E+00   1.0500000000E-01     0.000   1.
-13    1    7    0    0    0  -1.3594912847E+00   2.6250539021E-01  -5.9197402294E-02   1.3898399064E+00   1.0500000000E-01     0.000  -1.
13    1    9    0    0    0   1.0173219135E+01  -1.7123127435E+01  -8.6279690951E+01   8.8548811265E+01   1.0500000000E-01     0.000   1.
-13    1    9    0    0    0   3.7371515889E+00  -6.2340256773E+00  -3.1658279890E+01   3.2482104131E+01   1.0500000000E-01     0.000  -1.
</event>
<event>
 13   1  9.2978750E-05  1.2500000E+02  7.5467720E-03  1.2380620E-01
   21   -1    0    0  502  501   0.0000000000E+00   0.0000000000E+00   5.0750635643E+01   5.0750635643E+01   0.0000000000E+00     0.000  -1.
   21   -1    0    0  501  502   0.0000000000E+00   0.0000000000E+00  -7.6969479308E+01   7.6969479308E+01   0.0000000000E+00     0.000  -1.
   25    2    1    2    0    0   0.0000000000E+00   0.0000000000E+00  -2.6218843665E+01   1.2772011495E+02   1.2500000000E+02  4.993E-09  -1.
3000002    2    3    0    0    0  -1.0681123788E+01   6.0233909333E+01  -2.1286047934E+01   6.5538584632E+01   1.0000000000E+01  1.897E-09   1.
3000002    2    3    0    0    0   1.0681123788E+01  -6.0233909333E+01  -4.9327957309E+00   6.2181530318E+01   1.0000000000E+01  1.662E-10   1.
3000001    1    4    0    0    0  -8.6972647495E+00   5.8135457611E+01  -2.1577113143E+01   6.2625439379E+01   1.0000000000E+00     0.000   1.
3000022   2   4   0   0   0   -1.9838590380E+00   2.0984517222E+00   2.9106520875E-01   2.9131452536E+00   2.5000000000E-01   5.143135E+00   0.
3000001    1    5    0    0    0   1.1634557846E+01  -3.9676455596E+01  -4.4120582530E+00   4.1593873623E+01   1.0000000000E+00     0.000  -1.
3000022   2   5   0   0   0   -9.5343405828E-01   -2.0557453738E+01   -5.2073747789E-01   2.0587656695E+01   2.5000000000E-01   6.991365E-01   0.
13    1    7    0    0    0  -6.2498513060E-01   7.2974971381E-01   7.1851387960E-02   9.6918970291E-01   1.0500000000E-01     0.000  -1.
-13    1    7    0    0    0  -1.3588739074E+00   1.3687020084E+00   2.1921382079E-01   1.9439555507E+00   1.0500000000E-01     0.000   1.
13    1    9    0    0    0  -2.2941691482E-01  -5.1053855452E+00  -1.0508093861E-01   5.1126960295E+00   1.0500000000E-01     0.000  -1.
-13    1    9    0    0    0  -7.2401714346E-01  -1.5452068192E+01  -4.1565653928E-01   1.5474960666E+01   1.0500000000E-01     0.000   1.
</event>
<event>
 13   1  9.2978750E-05  1.2500000E+02  7.5467720E-03  1.2380620E-01
   21   -1    0    0  502  501   0.0000000000E+00   0.0000000000E+00   1.1676617338E+02   1.1676617338E+02   0.0000000000E+00     0.000  -1.
   21   -1    0    0  501  502   0.0000000000E+00   0.0000000000E+00  -3.3453609782E+01   3.3453609782E+01   0.0000000000E+00     0.000  -1.
   25    2    1    2    0    0   0.0000000000E+00   0.0000000000E+00   8.3312563599E+01   1.5021978316E+02   1.2500000000E+02  4.237E-08  -1.
3000002    2    3    0    0    0  -5.2011865137E+01   1.5746289945E+01   6.5560881130E+00   5.5643167176E+01   1.0000000000E+01  1.948E-10  -1.
3000002    2    3    0    0    0   5.2011865137E+01  -1.5746289945E+01   7.6756475486E+01   9.4576615984E+01   1.0000000000E+01  2.903E-10  -1.
3000001    1    4    0    0    0  -4.5963254895E+00  -3.2218918309E-01   2.6923149177E+00   5.4294174173E+00   1.0000000000E+00     0.000   1.
3000022   2   4   0   0   0   -4.7415539647E+01   1.6068479128E+01   3.8637731952E+00   5.0213749758E+01   2.5000000000E-01   3.206032E+00   0.
3000001    1    5    0    0    0   1.0564224556E+01   7.6473705005E-01   1.4962047595E+01   1.8358936011E+01   1.0000000000E+00     0.000   1.
3000022   2   5   0   0   0   4.1447640581E+01   -1.6511026995E+01   6.1794427891E+01   7.6217679973E+01   2.5000000000E-01   2.212094E+01   0.
13    1    7    0    0    0  -3.2181750268E+01   1.0932206578E+01   2.6676942452E+00   3.4092606362E+01   1.0500000000E-01     0.000   1.
-13    1    7    0    0    0  -1.5233789379E+01   5.1362725498E+00   1.1960789500E+00   1.6121143396E+01   1.0500000000E-01     0.000  -1.
13    1    9    0    0    0   1.6824667981E+01  -6.7597522735E+00   2.5054454845E+01   3.0927341238E+01   1.0500000000E-01     0.000  -1.
-13    1    9    0    0    0   2.4622972599E+01  -9.7512747212E+00   3.6739973046E+01   4.5290338735E+01   1.0500000000E-01     0.000   1.
</event>
<event>
 13   1  9.2978750E-05  1.2500000E+02  7.5467720E-03  1.2380620E-01
   21   -1    0    0  502  501   0.0000000000E+00   0.0000000000E+00   2.2089507187E+01   2.2089507187E+01   0.0000000000E+00     0.000  -1.
   21   -1    0    0  501  502   0.0000000000E+00   0.0000000000E+00  -1.7683735390E+02   1.7683735390E+02   0.0000000000E+00     0.000  -1.
   25    2    1    2    0    0   0.0000000000E+00   0.0000000000E+00  -1.5474784671E+02   1.9892686109E+02   1.2500000000E+02  2.041E-08  -1.
3000002    2    3    0    0    0  -1.4179943666E+01   4.1344775854E+01  -8.0826754505E+00   4.5560848710E+01   1.0000000000E+01  1.484E-10  -1.
3000002    2    3    0    0    0   1.4179943666E+01  -4.1344775854E+01  -1.4666517126E+02   1.5336601238E+02   1.0000000000E+01  3.635E-10  -1.
3000001    1    4    0    0    0  -7.5940319572E+00   3.1471304058E+01  -9.1062308142E+00   3.3645738811E+01   1.0000000000E+00     0.000  -1.
3000022   2   4   0   0   0   -6.5859117086E+00   9.8734717956E+00   1.0235553638E+00   1.1915109899E+01   2.5000000000E-01   1.531057E+00   0.
3000001    1    5    0    0    0   9.5490776106E+00  -1.3728238165E+01  -5.0469267064E+01   5.3177028163E+01   1.0000000000E+00     0.000  -1.
3000022   2   5   0   0   0   4.6308660552E+00   -2.7616537688E+01   -9.6195904196E+01   1.0018898422E+02   2.5000000000E-01   1.193097E+01   0.
13    1    7    0    0    0  -3.8158675873E+00   5.7114136839E+00   5.2740559834E-01   6.8898674427E+00   1.0500000000E-01     0.000  -1.
-13    1    7    0    0    0  -2.7700441213E+00   4.1620581117E+00   4.9614976541E-01   5.0252424567E+00   1.0500000000E-01     0.000   1.
13    1    9    0    0    0   2.0851961211E+00  -1.2197120673E+01  -4.2699625313E+01   4.4456572320E+01   1.0500000000E-01     0.000   1.
-13    1    9    0    0    0   2.5456699341E+00  -1.5419417016E+01  -5.3496278883E+01   5.5732411897E+01   1.0500000000E-01     0.000  -1.
</event>
<event>
 13   1  9.2978750E-05  1.2500000E+02  7.5467720E-03  1.2380620E-01
   21   -1    0    0  502  501   0.0000000000E+00   0.0000000000E+00   2.9126585912E+01   2.9126585912E+01   0.0000000000E+00     0.000  -1.
   21   -1    0    0  501  502   0.0000000000E+00   0.0000000000E+00  -1.3411286897E+02   1.3411286897E+02   0.0000000000E+00     0.000  -1.
   25    2    1    2    0    0   0.0000000000E+00   0.0000000000E+00  -1.0498628306E+02   1.6323945488E+02   1.2500000000E+02  7.312E-08  -1.
3000002    2    3    0    0    0  -3.0742041039E+00   3.9033786551E+01   9.7699084135E+00   4.1575694027E+01   1.0000000000E+01  3.883E-10  -1.
3000002    2    3    0    0    0   3.0742041039E+00  -3.9033786551E+01  -1.1475619147E+02   1.2166376085E+02   1.0000000000E+01  7.961E-10  -1.
3000001    1    4    0    0    0  -4.8657360351E+00   2.0118192315E+01   8.9032705789E+00   2.2554052323E+01   1.0000000000E+00     0.000  -1.
3000022   2   4   0   0   0   1.7915319312E+00   1.8915594237E+01   8.6663783467E-01   1.9021641704E+01   2.5000000000E-01   3.793992E+00   0.
3000001    1    5    0    0    0   4.7794839805E+00  -2.1188156025E+01  -5.1164810108E+01   5.5593337877E+01   1.0000000000E+00     0.000  -1.
3000022   2   5   0   0   0   -1.7052798766E+00   -1.7845630527E+01   -6.3591381365E+01   6.6070422976E+01   2.5000000000E-01   5.869203E+00   0.
13    1    7    0    0    0   1.2771595001E+00   1.3674152894E+01   6.6074947610E-01   1.3749953041E+01   1.0500000000E-01     0.000   1.
-13    1    7    0    0    0   5.1437243101E-01   5.2414413427E+00   2.0588835856E-01   5.2716886633E+00   1.0500000000E-01     0.000  -1.
13    1    9    0    0    0  -5.9995862842E-01  -6.5837773930E+00  -2.3261702869E+01   2.4183132975E+01   1.0500000000E-01     0.000  -1.
-13    1    9    0    0    0  -1.1053212481E+00  -1.1261853134E+01  -4.0329678496E+01   4.1887290002E+01   1.0500000000E-01     0.000   1.
</event>
<event>
 13   1  9.2978750E-05  1.2500000E+02  7.5467720E-03  1.2380620E-01
   21   -1    0    0  502  501   0.0000000000E+00   0.0000000000E+00   1.0843069355E+02   1.0843069355E+02   0.0000000000E+00     0.000  -1.
   21   -1    0    0  501  502   0.0000000000E+00   0.0000000000E+00  -3.6025316009E+01   3.6025316009E+01   0.0000000000E+00     0.000  -1.
   25    2    1    2    0    0   0.0000000000E+00   0.0000000000E+00   7.2405377537E+01   1.4445600955E+02   1.2500000000E+02  2.031E-07  -1.
3000002    2    3    0    0    0   3.3408150800E+01  -2.1389887827E+01   9.0807741030E+01   9.9597578645E+01   1.0000000000E+01  9.741E-11  -1.
3000002    2    3    0    0    0  -3.3408150800E+01   2.1389887827E+01  -1.8402363493E+01   4.4858430905E+01   1.0000000000E+01  5.714E-11  -1.
3000001    1    4    0    0    0   9.9662628665E+00  -3.3012146259E+00   3.3050939227E+01   3.4692780190E+01   1.0000000000E+00     0.000  -1.
3000022   2   4   0   0   0   2.3441887933E+01   -1.8088673201E+01   5.7756801803E+01   6.4904798455E+01   2.5000000000E-01   3.972225E-02   0.
3000001    1    5    0    0    0  -1.1433610981E+00   2.1572245143E+00   6.8254885333E-01   2.7252091925E+00   1.0000000000E+00     0.000  -1.
3000022   2   5   0   0   0   -3.2264789701E+01   1.9232663313E+01   -1.9084912346E+01   4.2133221712E+01   2.5000000000E-01   8.424614E+00   0.
13    1    7    0    0    0   8.7030770265E+00  -6.6413338763E+00   2.1374410321E+01   2.4015147449E+01   1.0500000000E-01     0.000   1.
-13    1    7    0    0    0   1.4738810906E+01  -1.1447339325E+01   3.6382391481E+01   4.0889651007E+01   1.0500000000E-01     0.000  -1.
13    1    9    0    0    0  -2.0965559731E+01   1.2472867989E+01  -1.2335872916E+01   2.7337006352E+01   1.0500000000E-01     0.000  -1.
-13    1    9    0    0    0  -1.1299229970E+01   6.7597953236E+00  -6.7490394306E+00   1.4796215360E+01   1.0500000000E-01     0.000   1.
</event>
<event>
 13   1  9.2978750E-05  1.2500000E+02  7.5467720E-03  1.2380620E-01
   21   -1    0    0  502  501   0.0000000000E+00   0.0000000000E+00   3.8937656216E+01   3.8937656216E+01   0.0000000000E+00     0.000  -1.
   21   -1    0    0  501  502   0.0000000000E+00   0.0000000000E+00  -1.0032062480E+02   1.0032062480E+02   0.0000000000E+00     0.000  -1.
   25    2    1    2    0    0   0.0000000000E+00   0.0000000000E+00  -6.1382968586E+01   1.3925828102E+02   1.2500000000E+02  7.934E-08  -1.
3000002    2    3    0    0    0  -7.4062182429E+00  -6.0016771600E+01  -1.7075012296E+01   6.3627203198E+01   1.0000000000E+01  6.525E-10  -1.
3000002    2    3    0    0    0   7.4062182429E+00   6.0016771600E+01  -4.4307956290E+01   7.5631077822E+01   1.0000000000E+01  7.799E-10  -1.
3000001    1    4    0    0    0  -6.1551844579E+00  -4.1267514342E+01  -1.6338725523E+01   4.4820173889E+01   1.0000000000E+00     0.000  -1.
3000022   2   4   0   0   0   -1.2510337850E+00   -1.8749257258E+01   -7.3628677336E-01   1.8807029310E+01   2.5000000000E-01   4.729858E+00   0.
3000001    1    5    0    0    0  -2.9678301995E-01   2.9203849929E+01  -2.5027530364E+01   3.8475059544E+01   1.0000000000E+00     0.000   1.
3000022   2   5   0   0   0   7.7030012628E+00   3.0812921671E+01   -1.9280425926E+01   3.7156018277E+01   2.5000000000E-01   1.263289E+00   0.
13    1    7    0    0    0  -6.9310120509E-01  -9.3811598056E+00  -3.7912058412E-01   9.4149511945E+00   1.0500000000E-01     0.000   1.
-13    1    7    0    0    0  -5.5793257993E-01  -9.3680974520E+00  -3.5716618923E-01   9.3920781151E+00   1.0500000000E-01     0.000  -1.
13    1    9    0    0    0   2.5576617385E+00   1.0216787871E+01  -6.4557025129E+00   1.2353603033E+01   1.0500000000E-01     0.000   1.
-13    1    9    0    0    0   5.1453395243E+00   2.0596133800E+01  -1.2824723413E+01   2.4802415244E+01   1.0500000000E-01     0.000  -1.
</event>
<event>
 13   1  9.2978750E-05  1.2500000E+02  7.5467720E-03  1.2380620E-01
   21   -1    0    0  502  501   0.0000000000E+00   0.0000000000E+00   1.8630918260E+01   1.8630918260E+01   0.0000000000E+00     0.000   1.
   21   -1    0    0  501  502   0.0000000000E+00   0.0000000000E+00  -2.0966492072E+02   2.0966492072E+02   0.0000000000E+00     0.000   1.
   25    2    1    2    0    0   0.0000000000E+00   0.0000000000E+00  -1.9103400246E+02   2.2829583898E+02   1.2500000000E+02  2.903E-08  -1.
3000002    2    3    0    0    0  -2.1688011519E+01  -1.8248040180E+01   4.5653813920E+00   3.0400715803E+01   1.0000000000E+01  5.784E-10   1.
3000002    2    3    0    0    0   2.1688011519E+01   1.8248040180E+01  -1.9559938385E+02   1.9789512318E+02   1.0000000000E+01  1.398E-10   1.
3000001    1    4    0    0    0  -8.3491092526E+00  -5.2091988080E+00   6.2006882805E+00   1.1674412734E+01   1.0000000000E+00     0.000   1.
3000022   2   4   0   0   0   -1.3338902266E+01   -1.3038841372E+01   -1.6353068885E+00   1.8726303069E+01   2.5000000000E-01   9.791317E-01   0.
3000001    1    5    0    0    0   8.9377341876E+00   1.3930571386E+01  -1.0530552921E+02   1.0660299430E+02   1.0000000000E+00     0.000  -1.
3000022   2   5   0   0   0   1.2750277331E+01   4.3174687942E+00   -9.0293854638E+01   9.1292128873E+01   2.5000000000E-01   2.334725E+01   0.
13    1    7    0    0    0  -3.9044758968E+00  -3.8382164894E+00  -4.3869506232E-01   5.4936614572E+00   1.0500000000E-01     0.000   1.
-13    1    7    0    0    0  -9.4344263695E+00  -9.2006248829E+00  -1.1966118262E+00   1.3232641612E+01   1.0500000000E-01     0.000  -1.
13    1    9    0    0    0   9.3947051642E+00   3.1626984748E+00  -6.6675403521E+01   6.7408334844E+01   1.0500000000E-01     0.000  -1.
-13    1    9    0    0    0   3.3555721670E+00   1.1547703194E+00  -2.3618451118E+01   2.3883794030E+01   1.0500000000E-01     0.000   1.
</event>
<event>
 13   1  9.2978750E-05  1.2500000E+02  7.5467720E-03  1.2380620E-01
   21   -1    0    0  502  501   0.0000000000E+00   0.0000000000E+00   7.0355656185E+01   7.0355656185E+01   0.0000000000E+00     0.000  -1.
   21   -1    0    0  501  502   0.0000000000E+00   0.0000000000E+00  -5.5521477758E+01   5.5521477758E+01   0.0000000000E+00     0.000  -1.
   25    2    1    2    0    0   0.0000000000E+00   0.0000000000E+00   1.4834178427E+01   1.2587713394E+02   1.2500000000E+02  7.002E-08  -1.
3000002    2    3    0    0    0   3.9741930451E+01  -4.7788864322E+00   5.4693202202E+01   6.8509890954E+01   1.0000000000E+01  3.342E-11  -1.
3000002    2    3    0    0    0  -3.9741930451E+01   4.7788864322E+00  -3.9859023775E+01   5.7367242986E+01   1.0000000000E+01  4.120E-10  -1.
3000001    1    4    0    0    0   1.4948341748E+01   1.1167962364E+00   1.4252660762E+01   2.0708416010E+01   1.0000000000E+00     0.000   1.
3000022   2   4   0   0   0   2.4793588702E+01   -5.8956826687E+00   4.0440541440E+01   4.7801474944E+01   2.5000000000E-01   1.323062E+00   0.
3000001    1    5    0    0    0  -1.1846164396E+00  -1.4408589780E+00  -2.9445964678E+00   3.6262982588E+00   1.0000000000E+00     0.000   1.
3000022   2   5   0   0   0   -3.8557314011E+01   6.2197454102E+00   -3.6914427307E+01   5.3740944727E+01   2.5000000000E-01   8.619168E+00   0.
13    1    7    0    0    0   1.3167753286E+01  -3.0898463494E+00   2.1361047935E+01   2.5283240910E+01   1.0500000000E-01     0.000  -1.
-13    1    7    0    0    0   1.1625835417E+01  -2.8058363193E+00   1.9079493505E+01   2.2518234034E+01   1.0500000000E-01     0.000   1.
13    1    9    0    0    0  -2.1590979637E+01   3.5271255441E+00  -2.0745904246E+01   3.0149868728E+01   1.0500000000E-01     0.000  -1.
-13    1    9    0    0    0  -1.6966334374E+01   2.6926198661E+00  -1.6168523061E+01   2.3591075999E+01   1.0500000000E-01     0.000   1.
</event>
<event>
 13   1  9.2978750E-05  1.2500000E+02  7.5467720E-03  1.2380620E-01
   21   -1    0    0  502  501   0.0000000000E+00   0.0000000000E+00   2.6374331717E+01   2.6374331717E+01   0.0000000000E+00     0.000  -1.
   21   -1    0    0  501  502   0.0000000000E+00   0.0000000000E+00  -1.4810801813E+02   1.4810801813E+02   0.0000000000E+00     0.000  -1.
   25    2    1    2    0    0   0.0000000000E+00   0.0000000000E+00  -1.2173368641E+02   1.7448234984E+02   1.2500000000E+02  1.667E-07  -1.
3000002    2    3    0    0    0   2.3745574155E+01   3.2743648332E+01  -1.2589425837E+02   1.3260981520E+02   1.0000000000E+01  4.721E-10   1.
3000002    2    3    0    0    0  -2.3745574155E+01  -3.2743648332E+01   4.1605719567E+00   4.1872534639E+01   1.0000000000E+01  1.722E-10   1.
3000001    1    4    0    0    0   2.3264522386E+01   3.2874660471E+01  -1.1783723988E+02   1.2453351519E+02   1.0000000000E+00     0.000   1.
3000022   2   4   0   0   0   4.8105176922E-01   -1.3101213921E-01   -8.0570184869E+00   8.0763000119E+00   2.5000000000E-01   2.770287E-01   0.
3000001    1    5    0    0    0  -2.1676862227E+01  -2.3246226210E+01   1.7169129803E+00   3.1846839391E+01   1.0000000000E+00     0.000   1.
3000022   2   5   0   0   0   -2.0687119284E+00   -9.4974221220E+00   2.4436589764E+00   1.0025695248E+01   2.5000000000E-01   1.465176E+01   0.
13    1    7    0    0    0   3.7280380901E-01  -7.2628998182E-02  -5.3926458368E+00   5.4070242992E+00   1.0500000000E-01     0.000  -1.
-13    1    7    0    0    0   1.0824796021E-01  -5.8383141033E-02  -2.6643726501E+00   2.6692757127E+00   1.0500000000E-01     0.000   1.
13    1    9    0    0    0  -1.2770213550E+00  -6.0961284951E+00   1.5964359948E+00   6.4306453063E+00   1.0500000000E-01     0.000  -1.
-13    1    9    0    0    0  -7.9169057343E-01  -3.4012936269E+00   8.4722298164E-01   3.5950499414E+00   1.0500000000E-01     0.000   1.
</event>
<event>
 13   1  9.2978750E-05  1.2500000E+02  7.5467720E-03  1.2380620E-01
   21   -1    0    0  502  501   0.0000000000E+00   0.0000000000E+00   8.1877359271E+01   8.1877359271E+01   0.0000000000E+00     0.000  -1.
   21   -1    0    0  501  502   0.0000000000E+00   0.0000000000E+00  -4.7708548917E+01   4.7708548917E+01   0.0000000000E+00     0.000  -1.
   25    2    1    2    0    0   0.0000000000E+00   0.0000000000E+00   3.4168810354E+01   1.2958590819E+02   1.2500000000E+02  2.584E-08  -1.
3000002    2    3    0    0    0  -5.2309431211E+01   3.0628429417E+01   5.1795191379E+00   6.1653910668E+01   1.0000000000E+01  1.363E-09   1.
3000002    2    3    0    0    0   5.2309431211E+01  -3.0628429417E+01   2.8989291216E+01   6.7931997522E+01   1.0000000000E+01  1.028E-09   1.
3000001    1    4    0    0    0  -3.7215434615E+01   1.9213754049E+01   7.5855361444E+00   4.2575782751E+01   1.0000000000E+00     0.000  -1.
3000022   2   4   0   0   0   -1.5093996595E+01   1.1414675368E+01   -2.4060170065E+00   1.9078127917E+01   2.5000000000E-01   4.518547E+00   0.
3000001    1    5    0    0    0   1.8921767220E+01  -1.2732903217E+01   5.9409292768E+00   2.3589292904E+01   1.0000000000E+00     0.000  -1.
3000022   2   5   0   0   0   3.3387663991E+01   -1.7895526201E+01   2.3048361939E+01   4.4342704618E+01   2.5000000000E-01   1.392895E+01   0.
13    1    7    0    0    0  -3.5277194297E+00   2.6831881349E+00  -5.6956248800E-01   4.4698690551E+00   1.0500000000E-01     0.000   1.
-13    1    7    0    0    0  -1.1566277166E+01   8.7314872330E+00  -1.8364545185E+00   1.4608258862E+01   1.0500000000E-01     0.000  -1.
13    1    9    0    0    0   2.2391603889E+01  -1.1941772046E+01   1.5442341881E+01   2.9706342624E+01   1.0500000000E-01     0.000   1.
-13    1    9    0    0    0   1.0996060102E+01  -5.9537541547E+00   7.6060200585E+00   1.4636361994E+01   1.0500000000E-01     0.000  -1.
</event>
<event>
 13   1  9.2978750E-05  1.2500000E+02  7.5467720E-03  1.2380620E-01
   21   -1    0    0  502  501   0.0000000000E+00   0.0000000000E+00   6.9808150207E+00   6.9808150207E+00   0.0000000000E+00     0.000  -1.
   21   -1    0    0  501  502   0.0000000000E+00   0.0000000000E+00  -5.5956933230E+02   5.5956933230E+02   0.0000000000E+00     0.000  -1.
   25    2    1    2    0    0   0.0000000000E+00   0.0000000000E+00  -5.5258851728E+02   5.6655014732E+02   1.2500000000E+02  2.597E-08  -1.
3000002    2    3    0    0    0   5.5312951799E+01  -1.8317153093E+01  -3.6820362875E+02   3.7291949930E+02   1.0000000000E+01  1.621E-09   1.
3000002    2    3    0    0    0  -5.5312951799E+01   1.8317153093E+01  -1.8438488853E+02   1.9363064802E+02   1.0000000000E+01  2.821E-10   1.
3000001    1    4    0    0    0   5.4723646469E+01  -1.8522520226E+01  -3.5274133902E+02   3.5744260167E+02   1.0000000000E+00     0.000   1.
3000022   2   4   0   0   0   5.8930532929E-01   2.0536713337E-01   -1.5462289733E+01   1.5476897629E+01   2.5000000000E-01   5.244764E+00   0.
3000001    1    5    0    0    0  -5.1353767437E+00   4.8349857884E-02  -1.0508964982E+01   1.1739368680E+01   1.0000000000E+00     0.000   1.
3000022   2   5   0   0   0   -5.0177575055E+01   1.8268803235E+01   -1.7387592355E+02   1.8189127934E+02   2.5000000000E-01   4.429734E+00   0.
13    1    7    0    0    0   3.7200592139E-01   1.7323389755E-01  -8.8586265023E+00   8.8687477637E+00   1.0500000000E-01     0.000  -1.
-13    1    7    0    0    0   2.1729940791E-01   3.2133235824E-02  -6.6036632304E+00   6.6081498650E+00   1.0500000000E-01     0.000   1.
13    1    9    0    0    0  -2.1870879950E+01   7.9012708545E+00  -7.5826377213E+01   7.9312142684E+01   1.0500000000E-01     0.000  -1.
-13    1    9    0    0    0  -2.8306695105E+01   1.0367532380E+01  -9.8049546332E+01   1.0257913665E+02   1.0500000000E-01     0.000   1.
</event>
<event>
 13   1  9.2978750E-05  1.2500000E+02  7.5467720E-03  1.2380620E-01
   21   -1    0    0  502  501   0.0000000000E+00   0.0000000000E+00   2.2827893042E+01   2.2827893042E+01   0.0000000000E+00     0.000  -1.
   21   -1    0    0  501  502   0.0000000000E+00   0.0000000000E+00  -1.7111741293E+02   1.7111741293E+02   0.0000000000E+00     0.000  -1.
   25    2    1    2    0    0   0.0000000000E+00   0.0000000000E+00  -1.4828951988E+02   1.9394530597E+02   1.2500000000E+02  1.313E-08  -1.
3000002    2    3    0    0    0  -8.8816243633E+00  -5.4267867409E+01  -1.1754319351E+02   1.3015485787E+02   1.0000000000E+01  5.997E-10  -1.
3000002    2    3    0    0    0   8.8816243633E+00   5.4267867409E+01  -3.0746326366E+01   6.3790448105E+01   1.0000000000E+01  2.520E-09  -1.
3000001    1    4    0    0    0  -5.2861009665E+00  -1.0127553134E+01  -2.8027689892E+01   3.0283024892E+01   1.0000000000E+00     0.000   1.
3000022   2   4   0   0   0   -3.5955233968E+00   -4.4140314275E+01   -8.9515503622E+01   9.9871832974E+01   2.5000000000E-01   3.410778E-02   0.
3000001    1    5    0    0    0   2.9574087789E+00   2.8963309059E+01  -2.1495194004E+01   3.6203078648E+01   1.0000000000E+00     0.000   1.
3000022   2   5   0   0   0   5.9242155844E+00   2.5304558349E+01   -9.2511323616E+00   2.7587369456E+01   2.5000000000E-01   1.193839E+01   0.
13    1    7    0    0    0  -2.3865631787E+00  -2.9238176870E+01  -5.9416686621E+01   6.6264019984E+01   1.0500000000E-01     0.000  -1.
-13    1    7    0    0    0  -1.2089602181E+00  -1.4902137405E+01  -3.0098817002E+01   3.3607812990E+01   1.0500000000E-01     0.000   1.
13    1    9    0    0    0   3.3173653237E+00   1.4456450213E+01  -5.2838175213E+00   1.5745590432E+01   1.0500000000E-01     0.000  -1.
-13    1    9    0    0    0   2.6068502607E+00   1.0848108136E+01  -3.9673148402E+00   1.1841779024E+01   1.0500000000E-01     0.000   1.
</event>
<event>
 13   1  9.2978750E-05  1.2500000E+02  7.5467720E-03  1.2380620E-01
   21   -1    0    0  502  501   0.0000000000E+00   0.0000000000E+00   3.7138003150E+02   3.7138003150E+02   0.0000000000E+00     0.000   1.
   21   -1    0    0  501  502   0.0000000000E+00   0.0000000000E+00  -1.0518201488E+01   1.0518201488E+01   0.0000000000E+00     0.000   1.
   25    2    1    2    0    0   0.0000000000E+00   0.0000000000E+00   3.6086183001E+02   3.8189823298E+02   1.2500000000E+02  6.884E-09  -1.
3000002    2    3    0    0    0  -5.7971193395E+00   3.8620548078E+00   3.6771475392E+02   3.6791665131E+02   1.0000000000E+01  7.338E-11  -1.
3000002    2    3    0    0    0   5.7971193395E+00  -3.8620548078E+00  -6.8529239084E+00   1.3981581673E+01   1.0000000000E+01  1.131E-09  -1.
3000001    1    4    0    0    0   7.5117976795E-01  -2.6592154655E+00   9.2420540180E+01   9.2467247959E+01   1.0000000000E+00     0.000  -1.
3000022   2   4   0   0   0   -6.5482991074E+00   6.5212702733E+00   2.7529421374E+02   2.7544940335E+02   2.5000000000E-01   1.042960E+01   0.
3000001    1    5    0    0    0   2.2570849402E+00   2.5957808938E+00  -5.3856374801E+00   6.4681992813E+00   1.0000000000E+00     0.000  -1.
3000022   2   5   0   0   0   3.5400343993E+00   -6.4578357015E+00   -1.4672864283E+00   7.5133823913E+00   2.5000000000E-01   6.644343E-02   0.
13    1    7    0    0    0  -3.4365941211E+00   3.5099691626E+00   1.4552857610E+02   1.4561149525E+02   1.0500000000E-01     0.000   1.
-13    1    7    0    0    0  -3.1117049863E+00   3.0113011106E+00   1.2976563764E+02   1.2983790810E+02   1.0500000000E-01     0.000  -1.
13    1    9    0    0    0   2.1179076218E+00  -3.7472049143E+00  -8.9005094373E-01   4.3966229139E+00   1.0500000000E-01     0.000  -1.
-13    1    9    0    0    0   1.4221267774E+00  -2.7106307872E+00  -5.7723548458E-01   3.1167594775E+00   1.0500000000E-01     0.000   1.
</event>
<event>
 13   1  9.2978750E-05  1.2500000E+02  7.5467720E-03  1.2380620E-01
   21   -1    0    0  502  501   0.0000000000E+00   0.0000000000E+00   3.8728360551E+02   3.8728360551E+02   0.0000000000E+00     0.000   1.
   21   -1    0    0  501  502   0.0000000000E+00   0.0000000000E+00  -1.0086277716E+01   1.0086277716E+01   0.0000000000E+00     0.000   1.
   25    2    1    2    0    0   0.0000000000E+00   0.0000000000E+00   3.7719732779E+02   3.9736988322E+02   1.2500000000E+02  2.451E-08  -1.
3000002    2    3    0    0    0  -4.5688604109E+01  -3.8650311944E+01   1.4091906345E+02   1.5342580488E+02   1.0000000000E+01  2.581E-10  -1.
3000002    2    3    0    0    0   4.5688604109E+01   3.8650311944E+01   2.3627826434E+02   2.4394407834E+02   1.0000000000E+01  7.972E-10  -1.
3000001    1    4    0    0    0  -4.5141171096E+01  -3.7426017323E+01   1.3252668965E+02   1.4492327477E+02   1.0000000000E+00     0.000  -1.
3000022   2   4   0   0   0   -5.4743301251E-01   -1.2242946209E+00   8.3923738044E+00   8.5025301113E+00   2.5000000000E-01   2.782746E+01   0.
3000001    1    5    0    0    0   3.6226859065E+01   2.4920804146E+01   1.6882622628E+02   1.7446124634E+02   1.0000000000E+00     0.000  -1.
3000022   2   5   0   0   0   9.4617450439E+00   1.3729507798E+01   6.7452038060E+01   6.9482831995E+01   2.5000000000E-01   1.043309E+00   0.
13    1    7    0    0    0  -3.5239137304E-01  -6.9043860864E-01   4.5017663178E+00   4.5692242375E+00   1.0500000000E-01     0.000   1.
-13    1    7    0    0    0  -1.9504163947E-01  -5.3385601224E-01   3.8906074865E+00   3.9333058738E+00   1.0500000000E-01     0.000  -1.
13    1    9    0    0    0   5.1393844890E+00   7.3962159744E+00   3.6194484523E+01   3.7298378230E+01   1.0500000000E-01     0.000   1.
-13    1    9    0    0    0   4.3223605549E+00   6.3332918236E+00   3.1257553536E+01   3.2184453765E+01   1.0500000000E-01     0.000  -1.
</event>
<event>
 13   1  9.2978750E-05  1.2500000E+02  7.5467720E-03  1.2380620E-01
   21   -1    0    0  502  501   0.0000000000E+00   0.0000000000E+00   4.5266808265E+01   4.5266808265E+01   0.0000000000E+00     0.000  -1.
   21   -1    0    0  501  502   0.0000000000E+00   0.0000000000E+00  -8.6293912686E+01   8.6293912686E+01   0.0000000000E+00     0.000  -1.
   25    2    1    2    0    0   0.0000000000E+00   0.0000000000E+00  -4.1027104421E+01   1.3156072095E+02   1.2500000000E+02  9.717E-10  -1.
3000002    2    3    0    0    0   4.3569152075E+01  -3.0275063976E+01  -5.3652642097E+01   7.6114758853E+01   1.0000000000E+01  3.406E-10  -1.
3000002    2    3    0    0    0  -4.3569152075E+01   3.0275063976E+01   1.2625537676E+01   5.5445962097E+01   1.0000000000E+01  1.044E-10  -1.
3000001    1    4    0    0    0   3.4174470340E+01  -2.7601007204E+01  -4.6705517633E+01   6.4125777960E+01   1.0000000000E+00     0.000  -1.
3000022   2   4   0   0   0   9.3946817352E+00   -2.6740567723E+00   -6.9471244638E+00   1.1988980893E+01   2.5000000000E-01   2.482721E-01   0.
3000001    1    5    0    0    0  -2.2322820255E+01   2.1450484526E+01   6.7957447776E+00   3.1711413365E+01   1.0000000000E+00     0.000  -1.
3000022   2   5   0   0   0   -2.1246331821E+01   8.8245794500E+00   5.8297928979E+00   2.3734548732E+01   2.5000000000E-01   1.040610E+01   0.
13    1    7    0    0    0   3.8004840731E+00  -1.0167699862E+00  -2.8105865941E+00   4.8361061193E+00   1.0500000000E-01     0.000   1.
-13    1    7    0    0    0   5.5941976622E+00  -1.6572867861E+00  -4.1365378697E+00   7.1528747733E+00   1.0500000000E-01     0.000  -1.
13    1    9    0    0    0  -1.6191701301E+01   6.7085673676E+00   4.4503680247E+00   1.8082944111E+01   1.0500000000E-01     0.000  -1.
-13    1    9    0    0    0  -5.0546305194E+00   2.1160120825E+00   1.3794248732E+00   5.6516046218E+00   1.0500000000E-01     0.000   1.
</event>
<event>
 13   1  9.2978750E-05  1.2500000E+02  7.5467720E-03  1.2380620E-01
   21   -1    0    0  502  501   0.0000000000E+00   0.0000000000E+00   1.5847127508E+02   1.5847127508E+02   0.0000000000E+00     0.000   1.
   21   -1    0    0  501  502   0.0000000000E+00   0.0000000000E+00  -2.4649577648E+01   2.4649577648E+01   0.0000000000E+00     0.000   1.
   25    2    1    2    0    0   0.0000000000E+00   0.0000000000E+00   1.3382169743E+02   1.8312085273E+02   1.2500000000E+02  1.971E-08  -1.
3000002    2    3    0    0    0  -1.8447785700E+01  -4.1708687732E+01   6.0430273901E+00   4.7079226943E+01   1.0000000000E+01  6.620E-10   1.
3000002    2    3    0    0    0   1.8447785700E+01   4.1708687732E+01   1.2777867004E+02   1.3604162579E+02   1.0000000000E+01  1.208E-10   1.
3000001    1    4    0    0    0  -7.2489713116E+00  -1.5559635769E+01  -2.5036324124E+00   1.7375788488E+01   1.0000000000E+00     0.000   1.
3000022   2   4   0   0   0   -1.1198814388E+01   -2.6149051963E+01   8.5466598025E+00   2.9703438455E+01   2.5000000000E-01   4.304129E+00   0.
3000001    1    5    0    0    0   2.0783282589E+00   1.6067017328E+01   4.1950400345E+01   4.4981158092E+01   1.0000000000E+00     0.000  -1.
3000022   2   5   0   0   0   1.6369457441E+01   2.5641670404E+01   8.5828269695E+01   9.1060467695E+01   2.5000000000E-01   4.593921E+00   0.
13    1    7    0    0    0  -5.5630168864E+00  -1.3154491576E+01   4.2706628908E+00   1.4907628652E+01   1.0500000000E-01     0.000  -1.
-13    1    7    0    0    0  -5.6357975019E+00  -1.2994560387E+01   4.2759969117E+00   1.4795809803E+01   1.0500000000E-01     0.000   1.
13    1    9    0    0    0   8.0347723603E+00   1.2686271330E+01   4.2243733734E+01   4.4833504346E+01   1.0500000000E-01     0.000  -1.
-13    1    9    0    0    0   8.3346850807E+00   1.2955399074E+01   4.3584535961E+01   4.6226963349E+01   1.0500000000E-01     0.000   1.
</event>
<event>
 13   1  9.2978750E-05  1.2500000E+02  7.5467720E-03  1.2380620E-01
   21   -1    0    0  502  501   0.0000000000E+00   0.0000000000E+00   2.7687304257E+01   2.7687304257E+01   0.0000000000E+00     0.000  -1.
   21   -1    0    0  501  502   0.0000000000E+00   0.0000000000E+00  -1.4108451887E+02   1.4108451887E+02   0.0000000000E+00     0.000  -1.
   25    2    1    2    0    0   0.0000000000E+00   0.0000000000E+00  -1.1339721462E+02   1.6877182313E+02   1.2500000000E+02  1.487E-07  -1.
3000002    2    3    0    0    0   2.7035038352E+01  -5.5116804969E+01  -4.8431115443E+01   7.8831011866E+01   1.0000000000E+01  6.118E-10   1.
3000002    2    3    0    0    0  -2.7035038352E+01   5.5116804969E+01  -6.4966099177E+01   8.9940811264E+01   1.0000000000E+01  5.322E-10   1.
3000001    1    4    0    0    0   1.3764052018E+01  -1.7378819199E+01  -1.7675152854E+01   2.8370469032E+01   1.0000000000E+00     0.000  -1.
3000022   2   4   0   0   0   1.3270986335E+01   -3.7737985769E+01   -3.0755962589E+01   5.0460542833E+01   2.5000000000E-01   1.519844E+00   0.
3000001    1    5    0    0    0  -5.3735557897E+00   1.8799762164E+01  -2.5019211486E+01   3.1768964457E+01   1.0000000000E+00     0.000   1.
3000022   2   5   0   0   0   -2.1661482563E+01   3.6317042804E+01   -3.9946887690E+01   5.8171846808E+01   2.5000000000E-01   2.047966E+01   0.
13    1    7    0    0    0   7.9209758778E+00  -2.2332255765E+01  -1.8219350939E+01   2.9890253930E+01   1.0500000000E-01     0.000   1.
-13    1    7    0    0    0   5.3500104572E+00  -1.5405730005E+01  -1.2536611651E+01   2.0570288903E+01   1.0500000000E-01     0.000  -1.
13    1    9    0    0    0  -7.3158549226E+00   1.2331355786E+01  -1.3604189771E+01   1.9765350316E+01   1.0500000000E-01     0.000   1.
-13    1    9    0    0    0  -1.4345627640E+01   2.3985687018E+01  -2.6342697920E+01   3.8406496492E+01   1.0500000000E-01     0.000  -1.
</event>
<event>
 13   1  9.2978750E-05  1.2500000E+02  7.5467720E-03  1.2380620E-01
   21   -1    0    0  502  501   0.0000000000E+00   0.0000000000E+00   2.0230280869E+01   2.0230280869E+01   0.0000000000E+00     0.000   1.
   21   -1    0    0  501  502   0.0000000000E+00   0.0000000000E+00  -1.9308926185E+02   1.9308926185E+02   0.0000000000E+00     0.000   1.
   25    2    1    2    0    0   0.0000000000E+00   0.0000000000E+00  -1.7285898098E+02   2.1331954272E+02   1.2500000000E+02  5.999E-08  -1.
3000002    2    3    0    0    0   1.4876749194E+01   4.2182138268E+01  -1.5894507456E+02   1.6542124163E+02   1.0000000000E+01  8.506E-10   1.
3000002    2    3    0    0    0  -1.4876749194E+01  -4.2182138268E+01  -1.3913906420E+01   4.7898301090E+01   1.0000000000E+01  2.751E-10   1.
3000001    1    4    0    0    0   1.0658453544E+01   1.7208736462E+01  -7.9102078422E+01   8.1657100446E+01   1.0000000000E+00     0.000   1.
3000022   2   4   0   0   0   4.2182956498E+00   2.4973401806E+01   -7.9842996138E+01   8.3764141184E+01   2.5000000000E-01   2.196803E+00   0.
3000001    1    5    0    0    0  -7.1708356953E+00  -8.9713032957E+00  -1.5525231198E+00   1.1632518877E+01   1.0000000000E+00     0.000  -1.
3000022   2   5   0   0   0   -7.7059134988E+00   -3.3210834972E+01   -1.2361383300E+01   3.6265782213E+01   2.5000000000E-01   9.499047E+00   0.
13    1    7    0    0    0   2.2191717707E+00   1.3450029396E+01  -4.2832748235E+01   4.4949787102E+01   1.0500000000E-01     0.000   1.
-13    1    7    0    0    0   1.9991238791E+00   1.1523372410E+01  -3.7010247903E+01   3.8814354082E+01   1.0500000000E-01     0.000  -1.
13    1    9    0    0    0  -3.3357902216E+00  -1.4421678642E+01  -5.2979275633E+00   1.5722320844E+01   1.0500000000E-01     0.000   1.
-13    1    9    0    0    0  -4.3701232771E+00  -1.8789156330E+01  -7.0634557365E+00   2.0543461368E+01   1.0500000000E-01     0.000  -1.
</event>
<event>
 13   1  9.2978750E-05  1.2500000E+02  7.5467720E-03  1.2380620E-01
   21   -1    0    0  502  501   0.0000000000E+00   0.0000000000E+00   7.8608864430E+01   7.8608864430E+01   0.0000000000E+00     0.000   1.
   21   -1    0    0  501  502   0.0000000000E+00   0.0000000000E+00  -4.9692232910E+01   4.9692232910E+01   0.0000000000E+00     0.000   1.
   25    2    1    2    0    0   0.0000000000E+00   0.0000000000E+00   2.8916631520E+01   1.2830109734E+02   1.2500000000E+02  4.156E-08  -1.
3000002    2    3    0    0    0  -3.9626995797E+01  -2.8449095834E+01   5.3226145599E+01   7.2888081501E+01   1.0000000000E+01  5.045E-10  -1.
3000002    2    3    0    0    0   3.9626995797E+01   2.8449095834E+01  -2.4309514079E+01   5.5413015839E+01   1.0000000000E+01  7.031E-10  -1.
3000001    1    4    0    0    0  -2.8675124209E+01  -2.5368776822E+01   4.3068596684E+01   5.7634552191E+01   1.0000000000E+00     0.000  -1.
3000022   2   4   0   0   0   -1.0951871587E+01   -3.0803190121E+00   1.0157548914E+01   1.5253529310E+01   2.5000000000E-01   9.171918E-02   0.
3000001    1    5    0    0    0   3.0531469929E+01   1.9791319324E+01  -2.2318504545E+01   4.2696400572E+01   1.0000000000E+00     0.000  -1.
3000022   2   5   0   0   0   9.0955258672E+00   8.6577765099E+00   -1.9910095334E+00   1.2716615267E+01   2.5000000000E-01   3.920903E+00   0.
13    1    7    0    0    0  -7.1367349446E+00  -2.0296729536E+00   6.6932881364E+00   9.9931821281E+00   1.0500000000E-01     0.000   1.
-13    1    7    0    0    0  -3.8151366427E+00  -1.0506460585E+00   3.4642607779E+00   5.2603471824E+00   1.0500000000E-01     0.000  -1.
13    1    9    0    0    0   2.1187833519E+00   2.0228297075E+00  -4.5284163271E-01   2.9660029437E+00   1.0500000000E-01     0.000  -1.
-13    1    9    0    0    0   6.9767425153E+00   6.6349468024E+00  -1.5381679007E+00   9.7506123236E+00   1.0500000000E-01     0.000   1.
</event>
<event>
 13   1  9.2978750E-05  1.2500000E+02  7.5467720E-03  1.2380620E-01
   21   -1    0    0  502  501   0.0000000000E+00   0.0000000000E+00   2.9091126257E+02   2.9091126257E+02   0.0000000000E+00     0.000   1.
   21   -1    0    0  501  502   0.0000000000E+00   0.0000000000E+00  -1.3427634136E+01   1.3427634136E+01   0.0000000000E+00     0.000   1.
   25    2    1    2    0    0   0.0000000000E+00   0.0000000000E+00   2.7748362844E+02   3.0433889671E+02   1.2500000000E+02  6.111E-08  -1.
3000002    2    3    0    0    0   5.8522294131E+01  -1.3058463466E+01   1.0338668749E+02   1.1993410494E+02   1.0000000000E+01  8.475E-10  -1.
3000002    2    3    0    0    0  -5.8522294131E+01   1.3058463466E+01   1.7409694095E+02   1.8440479177E+02   1.0000000000E+01  9.873E-10  -1.
3000001    1    4    0    0    0   3.3446330492E+01  -9.6624147331E+00   5.1031835022E+01   6.1784038938E+01   1.0000000000E+00     0.000  -1.
3000022   2   4   0   0   0   2.5075963639E+01   -3.3960487327E+00   5.2354852470E+01   5.8150066007E+01   2.5000000000E-01   3.320557E+00   0.
3000001    1    5    0    0    0  -1.3501534140E+01   4.7571921749E+00   5.4121431021E+01   5.5991531478E+01   1.0000000000E+00     0.000  -1.
3000022   2   5   0   0   0   -4.5020759991E+01   8.3012712909E+00   1.1997550993E+02   1.2841326029E+02   2.5000000000E-01   1.004486E+01   0.
13    1    7    0    0    0   1.5865100796E+01  -2.1028912998E+00   3.3023059692E+01   3.6696826450E+01   1.0500000000E-01     0.000  -1.
-13    1    7    0    0    0   9.2108628428E+00  -1.2931574329E+00   1.9331792779E+01   2.1453239557E+01   1.0500000000E-01     0.000   1.
13    1    9    0    0    0  -2.1281644668E+01   3.9879283428E+00   5.6674428199E+01   6.0669710803E+01   1.0500000000E-01     0.000   1.
-13    1    9    0    0    0  -2.3739115323E+01   4.3133429481E+00   6.3301081728E+01   6.7743549483E+01   1.0500000000E-01     0.000  -1.
</event>
<event>
 13   1  9.2978750E-05  1.2500000E+02  7.5467720E-03  1.2380620E-01
   21   -1    0    0  502  501   0.0000000000E+00   0.0000000000E+00   2.1941448774E+01   2.1941448774E+01   0.0000000000E+00     0.000  -1.
   21   -1    0    0  501  502   0.0000000000E+00   0.0000000000E+00  -1.7803063235E+02   1.7803063235E+02   0.0000000000E+00     0.000  -1.
   25    2    1    2    0    0   0.0000000000E+00   0.0000000000E+00  -1.5608918358E+02   1.9997208113E+02   1.2500000000E+02  3.104E-08  -1.
3000002    2    3    0    0    0  -4.4274908770E+01  -2.0194219741E+01  -1.3871338597E+02   1.4734136386E+02   1.0000000000E+01  5.205E-10  -1.
3000002    2    3    0    0    0   4.4274908770E+01   2.0194219741E+01  -1.7375797611E+01   5.2630717269E+01   1.0000000000E+01  6.630E-10  -1.
3000001    1    4    0    0    0  -3.6075879837E+01  -1.4751197320E+01  -1.2032111846E+02   1.2648019006E+02   1.0000000000E+00     0.000  -1.
3000022   2   4   0   0   0   -8.1990289339E+00   -5.4430224210E+00   -1.8392267504E+01   2.0861173804E+01   2.5000000000E-01   2.462994E+01   0.
3000001    1    5    0    0    0   1.3035268991E+01   4.1343828728E+00  -9.3572067110E+00   1.6600261349E+01   1.0000000000E+00     0.000   1.
3000022   2   5   0   0   0   3.1239639779E+01   1.6059836869E+01   -8.0185909003E+00   3.6030455920E+01   2.5000000000E-01   7.944814E+00   0.
13    1    7    0    0    0  -2.1918614745E+00  -1.4146601870E+00  -4.8867406304E+00   5.5404674132E+00   1.0500000000E-01     0.000   1.
-13    1    7    0    0    0  -6.0071674594E+00  -4.0283622341E+00  -1.3505526873E+01   1.5320706391E+01   1.0500000000E-01     0.000  -1.
13    1    9    0    0    0   1.9380251349E+01   9.9906996266E+00  -5.0343403011E+00   2.2377752985E+01   1.0500000000E-01     0.000   1.
-13    1    9    0    0    0   1.1859388430E+01   6.0691372420E+00  -2.9842505992E+00   1.3652702935E+01   1.0500000000E-01     0.000  -1.
</event>
<event>
 13   1  9.2978750E-05  1.2500000E+02  7.5467720E-03  1.2380620E-01
   21   -1    0    0  502  501   0.0000000000E+00   0.0000000000E+00   3.1325935739E+01   3.1325935739E+01   0.0000000000E+00     0.000   1.
   21   -1    0    0  501  502   0.0000000000E+00   0.0000000000E+00  -1.2469699333E+02   1.2469699333E+02   0.0000000000E+00     0.000   1.
   25    2    1    2    0    0   0.0000000000E+00   0.0000000000E+00  -9.3371057594E+01   1.5602292907E+02   1.2500000000E+02  5.375E-09  -1.
3000002    2    3    0    0    0   2.9166573772E+01   1.0260910582E+01  -1.1332350082E+02   1.1789058974E+02   1.0000000000E+01  3.426E-10   1.
3000002    2    3    0    0    0  -2.9166573772E+01  -1.0260910582E+01   1.9952443229E+01   3.8132339325E+01   1.0000000000E+01  3.385E-11   1.
3000001    1    4    0    0    0  -2.7504832248E-01  -1.0079098008E-01  -7.1058625630E+00   7.1818586149E+00   1.0000000000E+00     0.000  -1.
3000022   2   4   0   0   0   2.9441622095E+01   1.0361701562E+01   -1.0621763826E+02   1.1070873113E+02   2.5000000000E-01   2.464479E-01   0.
3000001    1    5    0    0    0  -5.8820358551E-01   1.2302875492E+00   1.1233485050E+00   2.0301484614E+00   1.0000000000E+00     0.000   1.
3000022   2   5   0   0   0   -2.8578370187E+01   -1.1491198131E+01   1.8829094724E+01   3.6102190864E+01   2.5000000000E-01   7.801460E+00   0.
13    1    7    0    0    0   2.0655570090E+01   7.2239896903E+00  -7.4413589428E+01   7.7564372745E+01   1.0500000000E-01     0.000  -1.
-13    1    7    0    0    0   8.7860520050E+00   3.1377118714E+00  -3.1804048832E+01   3.3144358385E+01   1.0500000000E-01     0.000   1.
13    1    9    0    0    0  -1.2520775229E+01  -5.0661287451E+00   8.3260780469E+00   1.5867264208E+01   1.0500000000E-01     0.000  -1.
-13    1    9    0    0    0  -1.6057594958E+01  -6.4250693857E+00   1.0503016677E+01   2.0234926656E+01   1.0500000000E-01     0.000   1.
</event>
<event>
 13   1  9.2978750E-05  1.2500000E+02  7.5467720E-03  1.2380620E-01
   21   -1    0    0  502  501   0.0000000000E+00   0.0000000000E+00   4.8781576909E+00   4.8781576909E+00   0.0000000000E+00     0.000   1.
   21   -1    0    0  501  502   0.0000000000E+00   0.0000000000E+00  -8.0076337164E+02   8.0076337164E+02   0.0000000000E+00     0.000   1.
   25    2    1    2    0    0   0.0000000000E+00   0.0000000000E+00  -7.9588521395E+02   8.0564152933E+02   1.2500000000E+02  4.584E-08  -1.
3000002    2    3    0    0    0   1.7320987128E+01   4.7038055582E+01  -6.2975733394E+02   6.3182821631E+02   1.0000000000E+01  1.431E-10   1.
3000002    2    3    0    0    0  -1.7320987128E+01  -4.7038055582E+01  -1.6612788001E+02   1.7381331302E+02   1.0000000000E+01  1.126E-09   1.
3000001    1    4    0    0    0   1.2933222623E+01   3.6421922637E+01  -4.2749464587E+02   4.2923944010E+02   1.0000000000E+00     0.000   1.
3000022   2   4   0   0   0   4.3877645047E+00   1.0616132945E+01   -2.0226268807E+02   2.0258877620E+02   2.5000000000E-01   1.502866E+00   0.
3000001    1    5    0    0    0  -1.1585716040E+01  -2.4713630086E+01  -7.5107515394E+01   7.9919529509E+01   1.0000000000E+00     0.000  -1.
3000022   2   5   0   0   0   -5.7352710874E+00   -2.2324425496E+01   -9.1020364614E+01   9.3893783514E+01   2.5000000000E-01   7.502273E+00   0.
13    1    7    0    0    0   1.7166001368E+00   4.1762276338E+00  -8.0601769742E+01   8.0728210087E+01   1.0500000000E-01     0.000  -1.
-13    1    7    0    0    0   2.6711643679E+00   6.4399053112E+00  -1.2166091833E+02   1.2186056612E+02   1.0500000000E-01     0.000   1.
13    1    9    0    0    0  -1.6724906984E+00  -6.6497754605E+00  -2.7196480379E+01   2.8047750513E+01   1.0500000000E-01     0.000  -1.
-13    1    9    0    0    0  -4.0627803890E+00  -1.5674650035E+01  -6.3823884234E+01   6.5846033001E+01   1.0500000000E-01     0.000   1.
</event>
<event>
 13   1  9.2978750E-05  1.2500000E+02  7.5467720E-03  1.2380620E-01
   21   -1    0    0  502  501   0.0000000000E+00   0.0000000000E+00   1.3917598131E+01   1.3917598131E+01   0.0000000000E+00     0.000  -1.
   21   -1    0    0  501  502   0.0000000000E+00   0.0000000000E+00  -2.8066983708E+02   2.8066983708E+02   0.0000000000E+00     0.000  -1.
   25    2    1    2    0    0   0.0000000000E+00   0.0000000000E+00  -2.6675223895E+02   2.9458743521E+02   1.2500000000E+02  4.313E-08  -1.
3000002    2    3    0    0    0  -2.2849479236E+00  -6.0230551291E+01  -1.0235084399E+02   1.1919998138E+02   1.0000000000E+01  2.515E-10   1.
3000002    2    3    0    0    0   2.2849479236E+00   6.0230551291E+01  -1.6440139496E+02   1.7538745383E+02   1.0000000000E+01  3.038E-10   1.
3000001    1    4    0    0    0   3.2043148629E+00  -2.3755549554E+01  -4.5349086941E+01   5.1304321989E+01   1.0000000000E+00     0.000  -1.
3000022   2   4   0   0   0   -5.4892627865E+00   -3.6475001737E+01   -5.7001757048E+01   6.7895659391E+01   2.5000000000E-01   7.270471E+00   0.
3000001    1    5    0    0    0  -1.9912857992E+00   4.9096400849E+01  -1.3408468573E+02   1.4280799958E+02   1.0000000000E+00     0.000   1.
3000022   2   5   0   0   0   4.2762337228E+00   1.1134150442E+01   -3.0316709231E+01   3.2579454255E+01   2.5000000000E-01   3.122431E-01   0.
13    1    7    0    0    0  -2.9657828826E+00  -1.9409565691E+01  -3.0249336650E+01   3.6063284670E+01   1.0500000000E-01     0.000   1.
-13    1    7    0    0    0  -2.5234799039E+00  -1.7065436046E+01  -2.6752420397E+01   3.1832374721E+01   1.0500000000E-01     0.000  -1.
13    1    9    0    0    0   3.0262185666E+00   7.7519216472E+00  -2.1171838116E+01   2.2748803095E+01   1.0500000000E-01     0.000   1.
-13    1    9    0    0    0   1.2500151562E+00   3.3822287945E+00  -9.1448711151E+00   9.8306511595E+00   1.0500000000E-01     0.000  -1.
</event>
<event>
 13   1  9.2978750E-05  1.2500000E+02  7.5467720E-03  1.2380620E-01
   21   -1    0    0  502  501   0.0000000000E+00   0.0000000000E+00   2.5438074357E+02   2.5438074357E+02   0.0000000000E+00     0.000  -1.
   21   -1    0    0  501  502   0.0000000000E+00   0.0000000000E+00  -1.5355918633E+01   1.5355918633E+01   0.0000000000E+00     0.000  -1.
   25    2    1    2    0    0   0.0000000000E+00   0.0000000000E+00   2.3902482494E+02   2.6973666220E+02   1.2500000000E+02  2.903E-08  -1.
3000002    2    3    0    0    0  -1.9527251163E+01  -2.2744783607E+01   3.1539058741E+00   3.1758240531E+01   1.0000000000E+01  3.527E-09  -1.
3000002    2    3    0    0    0   1.9527251163E+01   2.2744783607E+01   2.3587091907E+02   2.3797842167E+02   1.0000000000E+01  1.074E-10  -1.
3000001    1    4    0    0    0  -5.0471790574E+00  -2.5350588838E+00  -2.5055710087E+00   6.2592672144E+00   1.0000000000E+00     0.000  -1.
3000022   2   4   0   0   0   -1.4480072106E+01   -2.0209724724E+01   5.6594768829E+00   2.5498973316E+01   2.5000000000E-01   2.214892E-01   0.
3000001    1    5    0    0    0   5.1017519074E+00   1.2603167526E+01   8.6081188555E+01   8.7154109067E+01   1.0000000000E+00     0.000   1.
3000022   2   5   0   0   0   1.4425499256E+01   1.0141616082E+01   1.4978973051E+02   1.5082431260E+02   2.5000000000E-01   1.725452E-01   0.
13    1    7    0    0    0  -9.8516118026E+00  -1.3665042063E+01   3.8488546817E+00   1.7280403267E+01   1.0500000000E-01     0.000  -1.
-13    1    7    0    0    0  -4.6284603030E+00  -6.5446826603E+00   1.8106222012E+00   8.2185700493E+00   1.0500000000E-01     0.000   1.
13    1    9    0    0    0   7.5178413171E+00   5.3654903040E+00   7.8315727327E+01   7.8858548022E+01   1.0500000000E-01     0.000  -1.
-13    1    9    0    0    0   6.9076579386E+00   4.7761257775E+00   7.1474003184E+01   7.1965764581E+01   1.0500000000E-01     0.000   1.
</event>
<event>
 13   1  9.2978750E-05  1.2500000E+02  7.5467720E-03  1.2380620E-01
   21   -1    0    0  502  501   0.0000000000E+00   0.0000000000E+00   1.6703503802E+02   1.6703503802E+02   0.0000000000E+00     0.000   1.
   21   -1    0    0  501  502   0.0000000000E+00   0.0000000000E+00  -2.3385812020E+01   2.3385812020E+01   0.0000000000E+00     0.000   1.
   25    2    1    2    0    0   0.0000000000E+00   0.0000000000E+00   1.4364922600E+02   1.9042085004E+02   1.2500000000E+02  1.533E-08  -1.
3000002    2    3    0    0    0  -3.5995975247E+01   4.4925699739E+01   1.0562212060E+02   1.2070650807E+02   1.0000000000E+01  2.169E-11  -1.
3000002    2    3    0    0    0   3.5995975247E+01  -4.4925699739E+01   3.8027105405E+01   6.9714341972E+01   1.0000000000E+01  1.630E-10  -1.
3000001    1    4    0    0    0  -2.8613159694E+01   3.6793401958E+01   7.6566553533E+01   8.9643206409E+01   1.0000000000E+00     0.000  -1.
3000022   2   4   0   0   0   -7.3828155530E+00   8.1322977810E+00   2.9055567062E+01   3.1063301659E+01   2.5000000000E-01   1.596590E+00   0.
3000001    1    5    0    0    0   3.8720697918E+00  -7.6195036124E+00   2.3679587582E+00   8.9250763836E+00   1.0000000000E+00     0.000  -1.
3000022   2   5   0   0   0   3.2123905455E+01   -3.7306196127E+01   3.5659146647E+01   6.0789265588E+01   2.5000000000E-01   3.842683E-01   0.
13    1    7    0    0    0  -3.4196601028E+00   3.8596584613E+00   1.3568684213E+01   1.4515896629E+01   1.0500000000E-01     0.000  -1.
-13    1    7    0    0    0  -3.9631554502E+00   4.2726393197E+00   1.5486882849E+01   1.6547405031E+01   1.0500000000E-01     0.000   1.
13    1    9    0    0    0   1.0867195694E+01  -1.2567238402E+01   1.2085800627E+01   2.0545292042E+01   1.0500000000E-01     0.000  -1.
-13    1    9    0    0    0   2.1256709762E+01  -2.4738957725E+01   2.3573346020E+01   4.0243973546E+01   1.0500000000E-01     0.000   1.
</event>
<event>
 13   1  9.2978750E-05  1.2500000E+02  7.5467720E-03  1.2380620E-01
   21   -1    0    0  502  501   0.0000000000E+00   0.0000000000E+00   6.9619815172E+01   6.9619815172E+01   0.0000000000E+00     0.000   1.
   21   -1    0    0  501  502   0.0000000000E+00   0.0000000000E+00  -5.6108307532E+01   5.6108307532E+01   0.0000000000E+00     0.000   1.
   25    2    1    2    0    0   0.0000000000E+00   0.0000000000E+00   1.3511507640E+01   1.2572812270E+02   1.2500000000E+02  5.756E-08  -1.
3000002    2    3    0    0    0   3.1153675386E+00   6.7955576086E+00  -5.4841192096E+01   5.6244479450E+01   1.0000000000E+01  2.270E-10  -1.
3000002    2    3    0    0    0  -3.1153675386E+00  -6.7955576086E+00   6.8352699736E+01   6.9483643250E+01   1.0000000000E+01  1.052E-10  -1.
3000001    1    4    0    0    0   3.5065284294E+00   9.0186557318E+00  -3.6924603522E+01   3.8184528780E+01   1.0000000000E+00     0.000  -1.
3000022   2   4   0   0   0   -3.9116089084E-01   -2.2230981232E+00   -1.7916588574E+01   1.8059950671E+01   2.5000000000E-01   9.491647E-01   0.
3000001    1    5    0    0    0  -5.7232418217E+00  -2.1804678700E+00   2.3034369068E+01   2.3855651227E+01   1.0000000000E+00     0.000   1.
3000022   2   5   0   0   0   2.6078742831E+00   -4.6150897386E+00   4.5318330668E+01   4.5627992023E+01   2.5000000000E-01   9.286644E+00   0.
13    1    7    0    0    0  -1.5740336913E-01  -7.1589120028E-01  -6.1824745009E+00   6.2266597776E+00   1.0500000000E-01     0.000  -1.
-13    1    7    0    0    0  -2.3375752171E-01  -1.5072069229E+00  -1.1734114073E+01   1.1833290893E+01   1.0500000000E-01     0.000   1.
13    1    9    0    0    0   1.0026073033E+00  -1.6763942821E+00   1.6409555783E+01   1.6525739475E+01   1.0500000000E-01     0.000   1.
-13    1    9    0    0    0   1.6052669798E+00  -2.9386954565E+00   2.8908774885E+01   2.9102252549E+01   1.0500000000E-01     0.000  -1.
</event>
<event>
 13   1  9.2978750E-05  1.2500000E+02  7.5467720E-03  1.2380620E-01
   21   -1    0    0  502  501   0.0000000000E+00   0.0000000000E+00   5.3934584101E+01   5.3934584101E+01   0.0000000000E+00     0.000   1.
   21   -1    0    0  501  502   0.0000000000E+00   0.0000000000E+00  -7.2425699857E+01   7.2425699857E+01   0.0000000000E+00     0.000   1.
   25    2    1    2    0    0   0.0000000000E+00   0.0000000000E+00  -1.8491115756E+01   1.2636028396E+02   1.2500000000E+02  2.495E-08  -1.
3000002    2    3    0    0    0   2.6445438504E+01  -4.6394640855E+01   2.1984423822E+01   5.8610057230E+01   1.0000000000E+01  3.069E-09  -1.
3000002    2    3    0    0    0  -2.6445438504E+01   4.6394640855E+01  -4.0475539578E+01   6.7750226730E+01   1.0000000000E+01  7.635E-10  -1.
3000001    1    4    0    0    0   8.4175664122E-01  -7.0210689039E+00   1.1671705572E+00   7.2364528538E+00   1.0000000000E+00     0.000   1.
3000022   2   4   0   0   0   2.5603681863E+01   -3.9373571951E+01   2.0817253265E+01   5.1373604377E+01   2.5000000000E-01   1.028065E+00   0.
3000001    1    5    0    0    0  -1.5780181834E+01   1.7930057241E+01  -1.8871655456E+01   3.0457190793E+01   1.0000000000E+00     0.000  -1.
3000022   2   5   0   0   0   -1.0665256671E+01   2.8464583614E+01   -2.1603884122E+01   3.7293035936E+01   2.5000000000E-01   7.428789E+00   0.
13    1    7    0    0    0   1.5826188294E+01  -2.4268760546E+01   1.2789063670E+01   3.1670367047E+01   1.0500000000E-01     0.000   1.
-13    1    7    0    0    0   9.7774935692E+00  -1.5104811406E+01   8.0281895955E+00   1.9703237330E+01   1.0500000000E-01     0.000  -1.
13    1    9    0    0    0  -5.6590100192E+00   1.4919479514E+01  -1.1316169933E+01   1.9562259336E+01   1.0500000000E-01     0.000  -1.
-13    1    9    0    0    0  -5.0062466514E+00   1.3545104100E+01  -1.0287714189E+01   1.7730776600E+01   1.0500000000E-01     0.000   1.
</event>
<event>
 13   1  9.2978750E-05  1.2500000E+02  7.5467720E-03  1.2380620E-01
   21   -1    0    0  502  501   0.0000000000E+00   0.0000000000E+00   1.3610081958E+02   1.3610081958E+02   0.0000000000E+00     0.000  -1.
   21   -1    0    0  501  502   0.0000000000E+00   0.0000000000E+00  -2.8701149722E+01   2.8701149722E+01   0.0000000000E+00     0.000  -1.
   25    2    1    2    0    0   0.0000000000E+00   0.0000000000E+00   1.0739966986E+02   1.6480196930E+02   1.2500000000E+02  8.076E-08  -1.
3000002    2    3    0    0    0  -4.0879846029E+01  -6.7495947565E+00   1.1396645142E+02   1.2167609005E+02   1.0000000000E+01  2.451E-10  -1.
3000002    2    3    0    0    0   4.0879846029E+01   6.7495947565E+00  -6.5667815628E+00   4.3125879247E+01   1.0000000000E+01  7.907E-10  -1.
3000001    1    4    0    0    0  -1.7496227983E+01  -2.4187397375E+00   3.5169264373E+01   3.9368076561E+01   1.0000000000E+00     0.000   1.
3000022   2   4   0   0   0   -2.3383618046E+01   -4.3308550190E+00   7.8797187050E+01   8.2308013492E+01   2.5000000000E-01   4.646261E+00   0.
3000001    1    5    0    0    0   3.8397215682E+01   3.6272305726E+00  -5.3658870315E+00   3.8952480247E+01   1.0000000000E+00     0.000  -1.
3000022   2   5   0   0   0   2.4826303466E+00   3.1223641839E+00   -1.2008945313E+00   4.1733989996E+00   2.5000000000E-01   3.675287E+00   0.
13    1    7    0    0    0  -1.2663199502E+01  -2.3709988872E+00   4.2901932223E+01   4.4794699137E+01   1.0500000000E-01     0.000  -1.
-13    1    7    0    0    0  -1.0720418544E+01  -1.9598561318E+00   3.5895254827E+01   3.7513314355E+01   1.0500000000E-01     0.000   1.
13    1    9    0    0    0   1.3040366461E+00   1.7282386421E+00  -6.9147809887E-01   2.2751895173E+00   1.0500000000E-01     0.000   1.
-13    1    9    0    0    0   1.1785937005E+00   1.3941255417E+00  -5.0941643247E-01   1.8982094823E+00   1.0500000000E-01     0.000  -1.
</event>
<event>
 13   1  9.2978750E-05  1.2500000E+02  7.5467720E-03  1.2380620E-01
   21   -1    0    0  502  501   0.0000000000E+00   0.0000000000E+00   1.8072234007E+02   1.8072234007E+02   0.0000000000E+00     0.000   1.
   21   -1    0    0  501  502   0.0000000000E+00   0.0000000000E+00  -2.1614649293E+01   2.1614649293E+01   0.0000000000E+00     0.000   1.
   25    2    1    2    0    0   0.0000000000E+00   0.0000000000E+00   1.5910769078E+02   2.0233698936E+02   1.2500000000E+02  8.090E-08  -1.
3000002    2    3    0    0    0   1.5604305743E+01  -5.4214545120E+01   3.9133781937E+01   6.9384177944E+01   1.0000000000E+01  1.585E-09   1.
3000002    2    3    0    0    0  -1.5604305743E+01   5.4214545120E+01   1.1997390884E+02   1.3295281142E+02   1.0000000000E+01  2.310E-10   1.
3000001    1    4    0    0    0   9.8498647730E+00  -4.3719169733E+01   3.4424279923E+01   5.6519170964E+01   1.0000000000E+00     0.000   1.
3000022   2   4   0   0   0   5.7544409695E+00   -1.0495375387E+01   4.7095020137E+00   1.2865006980E+01   2.5000000000E-01   1.550596E+00   0.
3000001    1    5    0    0    0  -9.4244265746E+00   3.2289223634E+01   5.9913568312E+01   6.8717169958E+01   1.0000000000E+00     0.000   1.
3000022   2   5   0   0   0   -6.1798791679E+00   2.1925321486E+01   6.0060340530E+01   6.4235641457E+01   2.5000000000E-01   2.989492E-01   0.
13    1    7    0    0    0   1.6160921458E+00  -2.8880370116E+00   1.3301686011E+00   3.5683168457E+00   1.0500000000E-01     0.000  -1.
-13    1    7    0    0    0   4.1383488237E+00  -7.6073383755E+00   3.3793334126E+00   9.2966901347E+00   1.0500000000E-01     0.000   1.
13    1    9    0    0    0  -2.0668394172E+00   7.4465288932E+00   2.0503794166E+01   2.1912079270E+01   1.0500000000E-01     0.000  -1.
-13    1    9    0    0    0  -4.1130397507E+00   1.4478792593E+01   3.9556546364E+01   4.2323562187E+01   1.0500000000E-01     0.000   1.
</event>
<event>
 13   1  9.2978750E-05  1.2500000E+02  7.5467720E-03  1.2380620E-01
   21   -1    0    0  502  501   0.0000000000E+00   0.0000000000E+00   1.5431412574E+01   1.5431412574E+01   0.0000000000E+00     0.000  -1.
   21   -1    0    0  501  502   0.0000000000E+00   0.0000000000E+00  -2.5313625576E+02   2.5313625576E+02   0.0000000000E+00     0.000  -1.
   25    2    1    2    0    0   0.0000000000E+00   0.0000000000E+00  -2.3770484319E+02   2.6856766834E+02   1.2500000000E+02  2.809E-08  -1.
3000002    2    3    0    0    0   5.4337754646E+01   9.3949746757E+00  -1.7829339628E+02   1.8689406702E+02   1.0000000000E+01  5.732E-10  -1.
3000002    2    3    0    0    0  -5.4337754646E+01  -9.3949746757E+00  -5.9411446910E+01   8.1673601323E+01   1.0000000000E+01  2.906E-09  -1.
3000001    1    4    0    0    0   4.6442076281E+01   6.2245810870E+00  -1.3898548644E+02   1.4667507389E+02   1.0000000000E+00     0.000   1.
3000022   2   4   0   0   0   7.8956783647E+00   3.1703935887E+00   -3.9307909839E+01   4.0218993129E+01   2.5000000000E-01   1.843747E+00   0.
3000001    1    5    0    0    0  -1.5150746884E+01  -5.3662445755E+00  -2.2647793537E+01   2.7789643108E+01   1.0000000000E+00     0.000  -1.
3000022   2   5   0   0   0   -3.9187007762E+01   -4.0287301003E+00   -3.6763653373E+01   5.3883958214E+01   2.5000000000E-01   1.948008E+00   0.
13    1    7    0    0    0   6.0147569983E+00   2.3952081292E+00  -2.9888117483E+01   3.0581447242E+01   1.0500000000E-01     0.000  -1.
-13    1    7    0    0    0   1.8809213664E+00   7.7518545952E-01  -9.4197923564E+00   9.6375458868E+00   1.0500000000E-01     0.000   1.
13    1    9    0    0    0  -2.2978227380E+01  -2.3139492772E+00  -2.1494172103E+01   3.1549385956E+01   1.0500000000E-01     0.000  -1.
-13    1    9    0    0    0  -1.6208780382E+01  -1.7147808231E+00  -1.5269481269E+01   2.2334572258E+01   1.0500000000E-01     0.000   1.
</event>
<event>
 13   1  9.2978750E-05  1.2500000E+02  7.5467720E-03  1.2380620E-01
   21   -1    0    0  502  501   0.0000000000E+00   0.0000000000E+00   1.1648985006E+01   1.1648985006E+01   0.0000000000E+00     0.000  -1.
   21   -1    0    0  501  502   0.0000000000E+00   0.0000000000E+00  -3.3532964443E+02   3.3532964443E+02   0.0000000000E+00     0.000  -1.
   25    2    1    2    0    0   0.0000000000E+00   0.0000000000E+00  -3.2368065942E+02   3.4697862944E+02   1.2500000000E+02  4.355E-08  -1.
3000002    2    3    0    0    0  -1.7897973827E+01  -2.9413030248E+01  -1.9735607622E+01   4.0926251034E+01   1.0000000000E+01  2.112E-10   1.
3000002    2    3    0    0    0   1.7897973827E+01   2.9413030248E+01  -3.0394505180E+02   3.0605237841E+02   1.0000000000E+01  2.199E-09   1.
3000001    1    4    0    0    0  -2.9854309846E+00  -1.2664013993E+01  -1.0169558444E+01   1.6544182286E+01   1.0000000000E+00     0.000   1.
3000022   2   4   0   0   0   -1.4912542843E+01   -1.6749016255E+01   -9.5660491785E+00   2.4382068748E+01   2.5000000000E-01   7.360318E+00   0.
3000001    1    5    0    0    0   6.2903440301E+00   1.1293309263E+01  -7.6444587246E+01   7.7536328140E+01   1.0000000000E+00     0.000   1.
3000022   2   5   0   0   0   1.1607629797E+01   1.8119720985E+01   -2.2750046455E+02   2.2851605027E+02   2.5000000000E-01   1.368850E+00   0.
13    1    7    0    0    0  -9.1900405426E+00  -1.0264842214E+01  -5.8242318423E+00   1.4958493654E+01   1.0500000000E-01     0.000  -1.
-13    1    7    0    0    0  -5.7225023001E+00  -6.4841740415E+00  -3.7418173362E+00   9.4235750940E+00   1.0500000000E-01     0.000   1.
13    1    9    0    0    0   4.7122053609E+00   7.2579871523E+00  -9.1117263601E+01   9.1527318370E+01   1.0500000000E-01     0.000  -1.
-13    1    9    0    0    0   6.8954244363E+00   1.0861733833E+01  -1.3638320095E+02   1.3698873190E+02   1.0500000000E-01     0.000   1.
</event>
<event>
 13   1  9.2978750E-05  1.2500000E+02  7.5467720E-03  1.2380620E-01
   21   -1    0    0  502  501   0.0000000000E+00   0.0000000000E+00   1.0682863153E+02   1.0682863153E+02   0.0000000000E+00     0.000   1.
   21   -1    0    0  501  502   0.0000000000E+00   0.0000000000E+00  -3.6565571831E+01   3.6565571831E+01   0.0000000000E+00     0.000   1.
   25    2    1    2    0    0   0.0000000000E+00   0.0000000000E+00   7.0263059703E+01   1.4339420337E+02   1.2500000000E+02  8.660E-09  -1.
3000002    2    3    0    0    0  -2.0418679600E+01  -1.5766915956E+01  -2.9157521049E+01   4.0195511554E+01   1.0000000000E+01  1.791E-11  -1.
3000002    2    3    0    0    0   2.0418679600E+01   1.5766915956E+01   9.9420580752E+01   1.0319869182E+02   1.0000000000E+01  1.157E-10  -1.
3000001    1    4    0    0    0  -9.9696484371E+00  -3.5260400718E+00  -1.6911233067E+01   1.9970394398E+01   1.0000000000E+00     0.000  -1.
3000022   2   4   0   0   0   -1.0449031162E+01   -1.2240875884E+01   -1.2246287982E+01   2.0225117156E+01   2.5000000000E-01   5.334027E+00   0.
3000001    1    5    0    0    0   3.9512511078E+00  -7.3219593776E-02   8.1699095671E+00   9.1304528234E+00   1.0000000000E+00     0.000  -1.
3000022   2   5   0   0   0   1.6467428492E+01   1.5840135550E+01   9.1250671185E+01   9.4068238992E+01   2.5000000000E-01   7.769363E-01   0.
13    1    7    0    0    0  -4.7899882544E+00  -5.5195136169E+00  -5.5229410396E+00   9.1609454082E+00   1.0500000000E-01     0.000  -1.
-13    1    7    0    0    0  -5.6590429080E+00  -6.7213622673E+00  -6.7233469425E+00   1.1064171748E+01   1.0500000000E-01     0.000   1.
13    1    9    0    0    0   1.1963568573E+01   1.1515411494E+01   6.6160305031E+01   6.8212379094E+01   1.0500000000E-01     0.000  -1.
-13    1    9    0    0    0   4.5038599185E+00   4.3247240554E+00   2.5090366155E+01   2.5855859898E+01   1.0500000000E-01     0.000   1.
</event>
<event>
 13   1  9.2978750E-05  1.2500000E+02  7.5467720E-03  1.2380620E-01
   21   -1    0    0  502  501   0.0000000000E+00   0.0000000000E+00   9.6404270968E+00   9.6404270968E+00   0.0000000000E+00     0.000   1.
   21   -1    0    0  501  502   0.0000000000E+00   0.0000000000E+00  -4.0519470359E+02   4.0519470359E+02   0.0000000000E+00     0.000   1.
   25    2    1    2    0    0   0.0000000000E+00   0.0000000000E+00  -3.9555427650E+02   4.1483513069E+02   1.2500000000E+02  1.528E-08  -1.
3000002    2    3    0    0    0   1.9321023802E+00  -2.2629078996E+01  -3.8814455616E+02   3.8893701896E+02   1.0000000000E+01  4.176E-10   1.
3000002    2    3    0    0    0  -1.9321023802E+00   2.2629078996E+01  -7.4097203353E+00   2.5898111732E+01   1.0000000000E+01  4.660E-10   1.
3000001    1    4    0    0    0   4.4186814315E-01   2.8627146270E-01  -6.1643060611E+00   6.2670461959E+00   1.0000000000E+00     0.000   1.
3000022   2   4   0   0   0   1.4902342371E+00   -2.2915350459E+01   -3.8198025010E+02   3.8266997276E+02   2.5000000000E-01   5.102309E-01   0.
3000001    1    5    0    0    0   7.0548610866E-01   2.1224121397E+01  -8.2175935056E+00   2.2792320697E+01   1.0000000000E+00     0.000   1.
3000022   2   5   0   0   0   -2.6375884889E+00   1.4049575988E+00   8.0787317026E-01   3.1057910346E+00   2.5000000000E-01   6.040513E+00   0.
13    1    7    0    0    0   4.9994481054E-01  -8.1891673606E+00  -1.3727152760E+02   1.3751652890E+02   1.0500000000E-01     0.000   1.
-13    1    7    0    0    0   9.9028942654E-01  -1.4726183098E+01  -2.4470872250E+02   2.4515344386E+02   1.0500000000E-01     0.000  -1.
13    1    9    0    0    0  -1.1264722721E+00   6.7193565603E-01   3.3549076477E-01   1.3579456391E+00   1.0500000000E-01     0.000   1.
-13    1    9    0    0    0  -1.5111162168E+00   7.3302194274E-01   4.7238240549E-01   1.7478453954E+00   1.0500000000E-01     0.000  -1.
</event>
<event>
 13   1  9.2978750E-05  1.2500000E+02  7.5467720E-03  1.2380620E-01
   21   -1    0    0  502  501   0.0000000000E+00   0.0000000000E+00   8.8272531776E+01   8.8272531776E+01   0.0000000000E+00     0.000  -1.
   21   -1    0    0  501  502   0.0000000000E+00   0.0000000000E+00  -4.4252157737E+01   4.4252157737E+01   0.0000000000E+00     0.000  -1.
   25    2    1    2    0    0   0.0000000000E+00   0.0000000000E+00   4.4020374039E+01   1.3252468951E+02   1.2500000000E+02  2.020E-08  -1.
3000002    2    3    0    0    0   4.3138020955E+01   4.3064357029E+01   1.1906426731E+01   6.2906205542E+01   1.0000000000E+01  1.844E-09  -1.
3000002    2    3    0    0    0  -4.3138020955E+01  -4.3064357029E+01   3.2113947308E+01   6.9618483968E+01   1.0000000000E+01  1.256E-12  -1.
3000001    1    4    0    0    0   1.6827726015E+01   1.0798293722E+01   2.0710951360E+00   2.0126225309E+01   1.0000000000E+00     0.000   1.
3000022   2   4   0   0   0   2.6310294940E+01   3.2266063306E+01   9.8353315949E+00   4.2779980233E+01   2.5000000000E-01   2.480011E+00   0.
3000001    1    5    0    0    0  -1.8383834527E+01  -2.1814444148E+01   1.0182062316E+01   3.0306925585E+01   1.0000000000E+00     0.000   1.
3000022   2   5   0   0   0   -2.4754186428E+01   -2.1249912881E+01   2.1931884992E+01   3.9311558383E+01   2.5000000000E-01   7.478585E+00   0.
13    1    7    0    0    0   1.6112182450E+01   1.9675936354E+01   5.9744828849E+00   2.6123750983E+01   1.0500000000E-01     0.000  -1.
-13    1    7    0    0    0   1.0198112491E+01   1.2590126953E+01   3.8608487100E+00   1.6656229250E+01   1.0500000000E-01     0.000   1.
13    1    9    0    0    0  -7.8649347962E+00  -6.7350699079E+00   7.0197787698E+00   1.2510263186E+01   1.0500000000E-01     0.000  -1.
-13    1    9    0    0    0  -1.6889251632E+01  -1.4514842973E+01   1.4912106222E+01   2.6801295196E+01   1.0500000000E-01     0.000   1.
</event>
<event>
 13   1  9.2978750E-05  1.2500000E+02  7.5467720E-03  1.2380620E-01
   21   -1    0    0  502  501   0.0000000000E+00   0.0000000000E+00   3.5540301570E+02   3.5540301570E+02   0.0000000000E+00     0.000   1.
   21   -1    0    0  501  502   0.0000000000E+00   0.0000000000E+00  -1.0991043484E+01   1.0991043484E+01   0.0000000000E+00     0.000   1.
   25    2    1    2    0    0   0.0000000000E+00   0.0000000000E+00   3.4441197221E+02   3.6639405918E+02   1.2500000000E+02  1.192E-09  -1.
3000002    2    3    0    0    0  -5.9850012063E+01  -4.0556459723E+00   2.1445708158E+02   2.2291323883E+02   1.0000000000E+01  2.748E-10  -1.
3000002    2    3    0    0    0   5.9850012063E+01   4.0556459723E+00   1.2995489063E+02   1.4348082035E+02   1.0000000000E+01  2.753E-10  -1.
3000001    1    4    0    0    0  -2.4834451393E+01  -2.0337368830E+00   1.0738664459E+02   1.1024417218E+02   1.0000000000E+00     0.000  -1.
3000022   2   4   0   0   0   -3.5015560670E+01   -2.0219090893E+00   1.0707043699E+02   1.1266906666E+02   2.5000000000E-01   5.378497E-01   0.
3000001    1    5    0    0    0   3.0377739614E+01   6.9488774388E+00   6.8560556589E+01   7.5316956135E+01   1.0000000000E+00     0.000   1.
3000022   2   5   0   0   0   2.9472272449E+01   -2.8932314665E+00   6.1394334041E+01   6.8163864210E+01   2.5000000000E-01   7.841172E-01   0.
13    1    7    0    0    0  -1.9904387955E+01  -1.0871368159E+00   6.0783985131E+01   6.3969292631E+01   1.0500000000E-01     0.000   1.
-13    1    7    0    0    0  -1.5111172715E+01  -9.3477227337E-01   4.6286451855E+01   4.8699774028E+01   1.0500000000E-01     0.000  -1.
13    1    9    0    0    0   1.6396831717E+01  -1.5579185524E+00   3.4242241710E+01   3.7997701810E+01   1.0500000000E-01     0.000  -1.
-13    1    9    0    0    0   1.3075440733E+01  -1.3353129141E+00   2.7152092332E+01   3.0166162399E+01   1.0500000000E-01     0.000   1.
</event>
<event>
 13   1  9.2978750E-05  1.2500000E+02  7.5467720E-03  1.2380620E-01
   21   -1    0    0  502  501   0.0000000000E+00   0.0000000000E+00   3.0499343981E+00   3.0499343981E+00   0.0000000000E+00     0.000  -1.
   21   -1    0    0  501  502   0.0000000000E+00   0.0000000000E+00  -1.2807652527E+03   1.2807652527E+03   0.0000000000E+00     0.000  -1.
   25    2    1    2    0    0   0.0000000000E+00   0.0000000000E+00  -1.2777153183E+03   1.2838151871E+03   1.2500000000E+02  3.870E-08  -1.
3000002    2    3    0    0    0  -4.8329319764E+01   1.8246190744E+01  -2.9244964402E+02   2.9714548779E+02   1.0000000000E+01  4.927E-11  -1.
3000002    2    3    0    0    0   4.8329319764E+01  -1.8246190744E+01  -9.8526567428E+02   9.8666969931E+02   1.0000000000E+01  5.671E-11  -1.
3000001    1    4    0    0    0  -4.2584407418E+01   1.4801440464E+01  -2.6912050694E+02   2.7287242742E+02   1.0000000000E+00     0.000  -1.
3000022   2   4   0   0   0   -5.7449123455E+00   3.4447502795E+00   -2.3329137086E+01   2.4273060365E+01   2.5000000000E-01   3.476095E+00   0.
3000001    1    5    0    0    0   4.6663288443E+01  -1.5614588848E+01  -8.9752916036E+02   8.9887756206E+02   1.0000000000E+00     0.000  -1.
3000022   2   5   0   0   0   1.6660313206E+00   -2.6316018958E+00   -8.7736513918E+01   8.7792137253E+01   2.5000000000E-01   1.560341E+00   0.
13    1    7    0    0    0  -3.0517768682E+00   1.7515362065E+00  -1.2275507438E+01   1.2770290874E+01   1.0500000000E-01     0.000   1.
-13    1    7    0    0    0  -2.6931354773E+00   1.6932140731E+00  -1.1053629648E+01   1.1502769492E+01   1.0500000000E-01     0.000  -1.
13    1    9    0    0    0   4.9730086117E-01  -8.6834507245E-01  -2.7546294684E+01   2.7564664104E+01   1.0500000000E-01     0.000   1.
-13    1    9    0    0    0   1.1687304594E+00  -1.7632568233E+00  -6.0190219234E+01   6.0227473149E+01   1.0500000000E-01     0.000  -1.
</event>
<event>
 13   1  9.2978750E-05  1.2500000E+02  7.5467720E-03  1.2380620E-01
   21   -1    0    0  502  501   0.0000000000E+00   0.0000000000E+00   1.8175313771E+02   1.8175313771E+02   0.0000000000E+00     0.000  -1.
   21   -1    0    0  501  502   0.0000000000E+00   0.0000000000E+00  -2.1492063627E+01   2.1492063627E+01   0.0000000000E+00     0.000  -1.
   25    2    1    2    0    0   0.0000000000E+00   0.0000000000E+00   1.6026107408E+02   2.0324520133E+02   1.2500000000E+02  3.790E-08  -1.
3000002    2    3    0    0    0  -3.0596353882E+01   5.3218869518E+01   7.0125249156E+01   9.3733321252E+01   1.0000000000E+01  1.547E-10   1.
3000002    2    3    0    0    0   3.0596353882E+01  -5.3218869518E+01   9.0135824924E+01   1.0951188008E+02   1.0000000000E+01  6.363E-10   1.
3000001    1    4    0    0    0  -1.2623180992E+01   2.7915359484E+01   4.0808141349E+01   5.1038381575E+01   1.0000000000E+00     0.000   1.
3000022   2   4   0   0   0   -1.7973172890E+01   2.5303510034E+01   2.9317107807E+01   4.2694939676E+01   2.5000000000E-01   4.541550E+00   0.
3000001    1    5    0    0    0   1.3397277631E+01  -2.8218849254E+01   5.3285916159E+01   6.1775232594E+01   1.0000000000E+00     0.000   1.
3000022   2   5   0   0   0   1.7199076251E+01   -2.5000020263E+01   3.6849908765E+01   4.7736647484E+01   2.5000000000E-01   1.268382E+00   0.
13    1    7    0    0    0  -1.1107924994E+01   1.5670487933E+01   1.8063530797E+01   2.6367638491E+01   1.0500000000E-01     0.000   1.
-13    1    7    0    0    0  -6.8652478967E+00   9.6330221009E+00   1.1253577010E+01   1.6327301186E+01   1.0500000000E-01     0.000  -1.
13    1    9    0    0    0   1.1598884082E+01  -1.6854791950E+01   2.4927454410E+01   3.2249141569E+01   1.0500000000E-01     0.000  -1.
-13    1    9    0    0    0   5.6001921694E+00  -8.1452283138E+00   1.1922454355E+01   1.5487505915E+01   1.0500000000E-01     0.000   1.
</event>
<event>
 13   1  9.2978750E-05  1.2500000E+02  7.5467720E-03  1.2380620E-01
   21   -1    0    0  502  501   0.0000000000E+00   0.0000000000E+00   7.6957040239E+01   7.6957040239E+01   0.0000000000E+00     0.000   1.
   21   -1    0    0  501  502   0.0000000000E+00   0.0000000000E+00  -5.0758838800E+01   5.0758838800E+01   0.0000000000E+00     0.000   1.
   25    2    1    2    0    0   0.0000000000E+00   0.0000000000E+00   2.6198201440E+01   1.2771587904E+02   1.2500000000E+02  7.879E-08  -1.
3000002    2    3    0    0    0  -1.6770539080E+01  -2.3936861578E+00   7.3711452272E+01   7.6291276766E+01   1.0000000000E+01  3.107E-10  -1.
3000002    2    3    0    0    0   1.6770539080E+01   2.3936861578E+00  -4.7513250832E+01   5.1424602274E+01   1.0000000000E+01  3.072E-10  -1.
3000001    1    4    0    0    0  -2.0459213928E+00  -1.4853665463E+00   3.0685924107E+01   3.0806136506E+01   1.0000000000E+00     0.000   1.
3000022   2   4   0   0   0   -1.4724617687E+01   -9.0831961152E-01   4.3025528165E+01   4.5485140259E+01   2.5000000000E-01   6.328068E+00   0.
3000001    1    5    0    0    0   1.5550196368E+01  -8.2122606404E-01  -3.2938628278E+01   3.6447719438E+01   1.0000000000E+00     0.000  -1.
3000022   2   5   0   0   0   1.2203427117E+00   3.2149122218E+00   -1.4574622554E+01   1.4976882837E+01   2.5000000000E-01   4.227732E+00   0.
13    1    7    0    0    0  -9.0033676883E+00  -5.0043386261E-01   2.6384893856E+01   2.7883412857E+01   1.0500000000E-01     0.000  -1.
-13    1    7    0    0    0  -5.7212499986E+00  -4.0788574891E-01   1.6640634309E+01   1.7601727402E+01   1.0500000000E-01     0.000   1.
13    1    9    0    0    0   4.5761953449E-01   1.0679061410E+00  -4.8283628139E+00   4.9672881562E+00   1.0500000000E-01     0.000  -1.
-13    1    9    0    0    0   7.6272317725E-01   2.1470060809E+00  -9.7462597398E+00   1.0009594681E+01   1.0500000000E-01     0.000   1.
</event>
<event>
 13   1  9.2978750E-05  1.2500000E+02  7.5467720E-03  1.2380620E-01
   21   -1    0    0  502  501   0.0000000000E+00   0.0000000000E+00   2.9262148312E+01   2.9262148312E+01   0.0000000000E+00     0.000   1.
   21   -1    0    0  501  502   0.0000000000E+00   0.0000000000E+00  -1.3349156591E+02   1.3349156591E+02   0.0000000000E+00     0.000   1.
   25    2    1    2    0    0   0.0000000000E+00   0.0000000000E+00  -1.0422941760E+02   1.6275371422E+02   1.2500000000E+02  7.001E-09  -1.
3000002    2    3    0    0    0   5.9584714301E+01   1.5952851165E+01  -5.3665360690E+01   8.2369913054E+01   1.0000000000E+01  6.494E-11   1.
3000002    2    3    0    0    0  -5.9584714301E+01  -1.5952851165E+01  -5.0564056910E+01   8.0383801166E+01   1.0000000000E+01  2.010E-09   1.
3000001    1    4    0    0    0   4.6945961432E+01   1.6477002715E+01  -4.1148887264E+01   6.4572794862E+01   1.0000000000E+00     0.000   1.
3000022   2   4   0   0   0   1.2638752869E+01   -5.2415155008E-01   -1.2516473425E+01   1.7797118192E+01   2.5000000000E-01   4.168169E+00   0.
3000001    1    5    0    0    0  -5.2756122751E+01  -1.7247445963E+01  -4.4265215586E+01   7.1000649229E+01   1.0000000000E+00     0.000   1.
3000022   2   5   0   0   0   -6.8285915496E+00   1.2945947987E+00   -6.2988413243E+00   9.3831519370E+00   2.5000000000E-01   4.292345E+00   0.
13    1    7    0    0    0   9.0084905734E+00  -4.0717724781E-01  -8.8859958788E+00   1.2660594120E+01   1.0500000000E-01     0.000   1.
-13    1    7    0    0    0   3.6302622961E+00  -1.1697430227E-01  -3.6304775466E+00   5.1365240720E+00   1.0500000000E-01     0.000  -1.
13    1    9    0    0    0  -4.1395512693E+00   7.2283979174E-01  -3.7874343744E+00   5.6580974025E+00   1.0500000000E-01     0.000  -1.
-13    1    9    0    0    0  -2.6890402803E+00   5.7175500692E-01  -2.5114069499E+00   3.7250545345E+00   1.0500000000E-01     0.000   1.
</event>
<event>
 13   1  9.2978750E-05  1.2500000E+02  7.5467720E-03  1.2380620E-01
   21   -1    0    0  502  501   0.0000000000E+00   0.0000000000E+00   3.5785127996E+01   3.5785127996E+01   0.0000000000E+00     0.000  -1.
   21   -1    0    0  501  502   0.0000000000E+00   0.0000000000E+00  -1.0915847501E+02   1.0915847501E+02   0.0000000000E+00     0.000  -1.
   25    2    1    2    0    0   0.0000000000E+00   0.0000000000E+00  -7.3373347011E+01   1.4494360300E+02   1.2500000000E+02  1.160E-08  -1.
3000002    2    3    0    0    0   3.2070050957E+01   2.5945966565E+01  -8.9881645946E+01   9.9400159091E+01   1.0000000000E+01  2.077E-10   1.
3000002    2    3    0    0    0  -3.2070050957E+01  -2.5945966565E+01   1.6508298935E+01   4.5543443909E+01   1.0000000000E+01  6.908E-10   1.
3000001    1    4    0    0    0   1.2395816122E+01   1.3516415215E+01  -4.9420901918E+01   5.2723574272E+01   1.0000000000E+00     0.000  -1.
3000022   2   4   0   0   0   1.9674234835E+01   1.2429551349E+01   -4.0460744028E+01   4.6676584820E+01   2.5000000000E-01   2.441237E+00   0.
3000001    1    5    0    0    0  -5.7393356664E+00  -8.0497773514E+00   7.5191809894E+00   1.2461018098E+01   1.0000000000E+00     0.000   1.
3000022   2   5   0   0   0   -2.6330715290E+01   -1.7896189213E+01   8.9891179461E+00   3.3082425810E+01   2.5000000000E-01   2.887302E-01   0.
13    1    7    0    0    0   1.2609886170E+01   7.9746729641E+00  -2.5824224308E+01   2.9824590931E+01   1.0500000000E-01     0.000  -1.
-13    1    7    0    0    0   7.0643486652E+00   4.4548783852E+00  -1.4636519721E+01   1.6851993889E+01   1.0500000000E-01     0.000   1.
13    1    9    0    0    0  -1.6348584282E+01  -1.1038953858E+01   5.5796705120E+00   2.0500694094E+01   1.0500000000E-01     0.000   1.
-13    1    9    0    0    0  -9.9821310078E+00  -6.8572353551E+00   3.4094474341E+00   1.2581731716E+01   1.0500000000E-01     0.000  -1.
</event>
<event>
 13   1  9.2978750E-05  1.2500000E+02  7.5467720E-03  1.2380620E-01
   21   -1    0    0  502  501   0.0000000000E+00   0.0000000000E+00   4.7263666401E+02   4.7263666401E+02   0.0000000000E+00     0.000   1.
   21   -1    0    0  501  502   0.0000000000E+00   0.0000000000E+00  -8.2648052880E+00   8.2648052880E+00   0.0000000000E+00     0.000   1.
   25    2    1    2    0    0   0.0000000000E+00   0.0000000000E+00   4.6437185872E+02   4.8090146929E+02   1.2500000000E+02  2.270E-07  -1.
3000002    2    3    0    0    0  -1.0953649687E-01   6.1643104591E+01   2.4189254202E+02   2.4982371029E+02   1.0000000000E+01  5.893E-10   1.
3000002    2    3    0    0    0   1.0953649687E-01  -6.1643104591E+01   2.2247931670E+02   2.3107775900E+02   1.0000000000E+01  1.052E-09   1.
3000001    1    4    0    0    0  -4.3089889359E+00   1.9069858979E+01   8.2374319435E+01   8.4668503055E+01   1.0000000000E+00     0.000  -1.
3000022   2   4   0   0   0   4.1994524390E+00   4.2573245612E+01   1.5951822258E+02   1.6515520724E+02   2.5000000000E-01   1.535679E+00   0.
3000001    1    5    0    0    0  -8.5312143869E-01  -4.3496434564E+01   1.7224521535E+02   1.7765720319E+02   1.0000000000E+00     0.000   1.
3000022   2   5   0   0   0   9.6265793556E-01   -1.8146670026E+01   5.0234101355E+01   5.3420555803E+01   2.5000000000E-01   2.315124E+00   0.
13    1    7    0    0    0   1.7874705045E+00   1.8323045951E+01   6.8406736241E+01   7.0840819108E+01   1.0500000000E-01     0.000   1.
-13    1    7    0    0    0   2.4119819345E+00   2.4250199661E+01   9.1111486341E+01   9.4314388132E+01   1.0500000000E-01     0.000  -1.
13    1    9    0    0    0   5.6783711800E-01  -1.1692810470E+01   3.2428688518E+01   3.4477168092E+01   1.0500000000E-01     0.000   1.
-13    1    9    0    0    0   3.9482081756E-01  -6.4538595563E+00   1.7805412837E+01   1.8943387710E+01   1.0500000000E-01     0.000  -1.
</event>
<event>
 13   1  9.2978750E-05  1.2500000E+02  7.5467720E-03  1.2380620E-01
   21   -1    0    0  502  501   0.0000000000E+00   0.0000000000E+00   1.1967668039E+01   1.1967668039E+01   0.0000000000E+00     0.000   1.
   21   -1    0    0  501  502   0.0000000000E+00   0.0000000000E+00  -3.2640026338E+02   3.2640026338E+02   0.0000000000E+00     0.000   1.
   25    2    1    2    0    0   0.0000000000E+00   0.0000000000E+00  -3.1443259535E+02   3.3836793142E+02   1.2500000000E+02  4.005E-09  -1.
3000002    2    3    0    0    0   4.3948155941E+01  -4.0979974883E+01  -1.1937217811E+02   1.3401684841E+02   1.0000000000E+01  3.016E-11   1.
3000002    2    3    0    0    0  -4.3948155941E+01   4.0979974883E+01  -1.9506041724E+02   2.0435108301E+02   1.0000000000E+01  9.058E-10   1.
3000001    1    4    0    0    0   2.4287010402E+01  -2.1716491547E+01  -5.3838906248E+01   6.2937212406E+01   1.0000000000E+00     0.000   1.
3000022   2   4   0   0   0   1.9661145539E+01   -1.9263483335E+01   -6.5533271861E+01   7.1079636008E+01   2.5000000000E-01   3.211796E+00   0.
3000001    1    5    0    0    0  -1.0169649305E+01   1.3363325698E+01  -6.6210798452E+01   6.8314493867E+01   1.0000000000E+00     0.000  -1.
3000022   2   5   0   0   0   -3.3778506636E+01   2.7616649184E+01   -1.2884961879E+02   1.3603658914E+02   2.5000000000E-01   1.345816E-01   0.
13    1    7    0    0    0   7.3554753386E+00  -7.2398247226E+00  -2.4429744921E+01   2.6520587124E+01   1.0500000000E-01     0.000  -1.
-13    1    7    0    0    0   1.2305670201E+01  -1.2023658613E+01  -4.1103526940E+01   4.4559048884E+01   1.0500000000E-01     0.000   1.
13    1    9    0    0    0  -1.3754343780E+01   1.1326921621E+01  -5.2647557947E+01   5.5581089491E+01   1.0500000000E-01     0.000   1.
-13    1    9    0    0    0  -2.0024162856E+01   1.6289727564E+01  -7.6202060841E+01   8.0455499648E+01   1.0500000000E-01     0.000  -1.
</event>
<event>
 13   1  9.2978750E-05  1.2500000E+02  7.5467720E-03  1.2380620E-01
   21   -1    0    0  502  501   0.0000000000E+00   0.0000000000E+00   1.3758557278E+01   1.3758557278E+01   0.0000000000E+00     0.000   1.
   21   -1    0    0  501  502   0.0000000000E+00   0.0000000000E+00  -2.8391421580E+02   2.8391421580E+02   0.0000000000E+00     0.000   1.
   25    2    1    2    0    0   0.0000000000E+00   0.0000000000E+00  -2.7015565852E+02   2.9767277307E+02   1.2500000000E+02  6.293E-08  -1.
3000002    2    3    0    0    0  -7.8779740230E+00   5.6766447376E+01  -1.8947341392E+02   1.9820359887E+02   1.0000000000E+01  7.988E-10   1.
3000002    2    3    0    0    0   7.8779740230E+00  -5.6766447376E+01  -8.0682244601E+01   9.9469174201E+01   1.0000000000E+01  2.746E-09   1.
3000001    1    4    0    0    0  -6.2852395036E+00   4.8389250015E+01  -1.7148072390E+02   1.7829094880E+02   1.0000000000E+00     0.000   1.
3000022   2   4   0   0   0   -1.5927345195E+00   8.3771973608E+00   -1.7992690018E+01   1.9912650074E+01   2.5000000000E-01   3.843767E-01   0.
3000001    1    5    0    0    0   3.2726209947E+00  -2.1115151380E+01  -2.2251295382E+01   3.0865511694E+01   1.0000000000E+00     0.000  -1.
3000022   2   5   0   0   0   4.6053530284E+00   -3.5651295996E+01   -5.8430949219E+01   6.8603662507E+01   2.5000000000E-01   2.753569E+00   0.
13    1    7    0    0    0  -3.6511303630E-01   1.9607011231E+00  -4.2379848712E+00   4.6849970322E+00   1.0500000000E-01     0.000   1.
-13    1    7    0    0    0  -1.2276214832E+00   6.4164962377E+00  -1.3754705147E+01   1.5227653042E+01   1.0500000000E-01     0.000  -1.
13    1    9    0    0    0   1.6292914305E+00  -1.2808717407E+01  -2.1087793441E+01   2.4726987066E+01   1.0500000000E-01     0.000   1.
-13    1    9    0    0    0   2.9760615979E+00  -2.2842578589E+01  -3.7343155778E+01   4.3876675441E+01   1.0500000000E-01     0.000  -1.
</event>
<event>
 13   1  9.2978750E-05  1.2500000E+02  7.5467720E-03  1.2380620E-01
   21   -1    0    0  502  501   0.0000000000E+00   0.0000000000E+00   4.7408257915E+00   4.7408257915E+00   0.0000000000E+00     0.000  -1.
   21   -1    0    0  501  502   0.0000000000E+00   0.0000000000E+00  -8.2395982721E+02   8.2395982721E+02   0.0000000000E+00     0.000  -1.
   25    2    1    2    0    0   0.0000000000E+00   0.0000000000E+00  -8.1921900142E+02   8.2870065300E+02   1.2500000000E+02  4.736E-09  -1.
3000002    2    3    0    0    0  -4.0091441562E+01  -4.1513704606E+00  -7.1926901699E+02   7.2046684612E+02   1.0000000000E+01  8.794E-10   1.
3000002    2    3    0    0    0   4.0091441562E+01   4.1513704606E+00  -9.9949984434E+01   1.0823380688E+02   1.0000000000E+01  2.332E-09   1.
3000001    1    4    0    0    0  -1.9954543118E+01  -2.6106270127E+00  -4.4453314697E+02   4.4498957057E+02   1.0000000000E+00     0.000   1.
3000022   2   4   0   0   0   -2.0136898444E+01   -1.5407434479E+00   -2.7473587002E+02   2.7547727555E+02   2.5000000000E-01   4.799111E+00   0.
3000001    1    5    0    0    0   2.6323868530E+00   4.3254164915E-01  -1.5699070413E+01   1.5955480709E+01   1.0000000000E+00     0.000  -1.
3000022   2   5   0   0   0   3.7459054709E+01   3.7188288114E+00   -8.4250914021E+01   9.2278326171E+01   2.5000000000E-01   1.724601E+01   0.
13    1    7    0    0    0  -1.5472458903E+01  -1.1821960820E+00  -2.1094969276E+02   2.1151968815E+02   1.0500000000E-01     0.000  -1.
-13    1    7    0    0    0  -4.6644395409E+00  -3.5854736593E-01  -6.3786177254E+01   6.3957587401E+01   1.0500000000E-01     0.000   1.
13    1    9    0    0    0   1.4882948006E+01   1.4146900330E+00  -3.3447523754E+01   3.6636748757E+01   1.0500000000E-01     0.000   1.
-13    1    9    0    0    0   2.2576106703E+01   2.3041387784E+00  -5.0803390268E+01   5.5641577414E+01   1.0500000000E-01     0.000  -1.
</event>
<event>
 13   1  9.2978750E-05  1.2500000E+02  7.5467720E-03  1.2380620E-01
   21   -1    0    0  502  501   0.0000000000E+00   0.0000000000E+00   1.2329698452E+01   1.2329698452E+01   0.0000000000E+00     0.000   1.
   21   -1    0    0  501  502   0.0000000000E+00   0.0000000000E+00  -3.1681634513E+02   3.1681634513E+02   0.0000000000E+00     0.000   1.
   25    2    1    2    0    0   0.0000000000E+00   0.0000000000E+00  -3.0448664668E+02   3.2914604358E+02   1.2500000000E+02  3.175E-08  -1.
3000002    2    3    0    0    0  -5.5765957634E+01  -2.1591654607E+01  -1.9219538803E+02   2.0153190506E+02   1.0000000000E+01  4.313E-10   1.
3000002    2    3    0    0    0   5.5765957634E+01   2.1591654607E+01  -1.1229125865E+02   1.2761413852E+02   1.0000000000E+01  1.085E-09   1.
3000001    1    4    0    0    0  -2.0877997015E+01  -1.2675921613E+01  -8.5332744956E+01   8.8765123274E+01   1.0000000000E+00     0.000   1.
3000022   2   4   0   0   0   -3.4887960619E+01   -8.9157329934E+00   -1.0686264307E+02   1.1276678179E+02   2.5000000000E-01   7.998073E-02   0.
3000001    1    5    0    0    0   2.2307542226E+01   3.5816396584E+00  -4.3342744024E+01   4.8888117599E+01   1.0000000000E+00     0.000   1.
3000022   2   5   0   0   0   3.3458415409E+01   1.8010014949E+01   -6.8948514631E+01   7.8726020920E+01   2.5000000000E-01   1.087413E+00   0.
13    1    7    0    0    0  -2.4899662918E+01  -6.3750613795E+00  -7.6150168521E+01   8.0370976178E+01   1.0500000000E-01     0.000  -1.
-13    1    7    0    0    0  -9.9882977008E+00  -2.5406716139E+00  -3.0712474548E+01   3.2395805609E+01   1.0500000000E-01     0.000   1.
13    1    9    0    0    0   2.2151370730E+01   1.1984152495E+01  -4.5720647447E+01   5.2198580098E+01   1.0500000000E-01     0.000   1.
-13    1    9    0    0    0   1.1307044678E+01   6.0258624537E+00  -2.3227867184E+01   2.6527440823E+01   1.0500000000E-01     0.000  -1.
</event>
<event>
 13   1  9.2978750E-05  1.2500000E+02  7.5467720E-03  1.2380620E-01
   21   -1    0    0  502  501   0.0000000000E+00   0.0000000000E+00   5.7700224075E+02   5.7700224075E+02   0.0000000000E+00     0.000  -1.
   21   -1    0    0  501  502   0.0000000000E+00   0.0000000000E+00  -6.7699043854E+00   6.7699043854E+00   0.0000000000E+00     0.000  -1.
   25    2    1    2    0    0   0.0000000000E+00   0.0000000000E+00   5.7023233636E+02   5.8377214513E+02   1.2500000000E+02  3.107E-08  -1.
3000002    2    3    0    0    0   1.5906296733E+01   5.9472663171E+01   2.6629468244E+02   2.7350112584E+02   1.0000000000E+01  2.713E-12  -1.
3000002    2    3    0    0    0  -1.5906296733E+01  -5.9472663171E+01   3.0393765392E+02   3.1027101929E+02   1.0000000000E+01  2.401E-10  -1.
3000001    1    4    0    0    0   5.1679692506E+00   3.7718407374E+01   1.5890936043E+02   1.6340921330E+02   1.0000000000E+00     0.000  -1.
3000022   2   4   0   0   0   1.0738327482E+01   2.1754255796E+01   1.0738532201E+02   1.1009191253E+02   2.5000000000E-01   1.003272E+00   0.
3000001    1    5    0    0    0  -1.7279112491E+01  -5.5939147127E+01   2.8370983447E+02   2.8968953396E+02   1.0000000000E+00     0.000  -1.
3000022   2   5   0   0   0   1.3728157586E+00   -3.5335160434E+00   2.0227819448E+01   2.0581485329E+01   2.5000000000E-01   1.745169E-01   0.
13    1    7    0    0    0   3.7193592253E+00   7.5318444438E+00   3.7437550426E+01   3.8368522524E+01   1.0500000000E-01     0.000  -1.
-13    1    7    0    0    0   7.0189682568E+00   1.4222411353E+01   6.9947771584E+01   7.1723390011E+01   1.0500000000E-01     0.000   1.
13    1    9    0    0    0   3.3811978147E-01  -9.6668137333E-01   5.4303420746E+00   5.5270641313E+00   1.0500000000E-01     0.000  -1.
-13    1    9    0    0    0   1.0346959772E+00  -2.5668346701E+00   1.4797477374E+01   1.5054421198E+01   1.0500000000E-01     0.000   1.
</event>
<event>
 13   1  9.2978750E-05  1.2500000E+02  7.5467720E-03  1.2380620E-01
   21   -1    0    0  502  501   0.0000000000E+00   0.0000000000E+00   3.0063093155E+02   3.0063093155E+02   0.0000000000E+00     0.000   1.
   21   -1    0    0  501  502   0.0000000000E+00   0.0000000000E+00  -1.2993506623E+01   1.2993506623E+01   0.0000000000E+00     0.000   1.
   25    2    1    2    0    0   0.0000000000E+00   0.0000000000E+00   2.8763742492E+02   3.1362443817E+02   1.2500000000E+02  1.217E-07  -1.
3000002    2    3    0    0    0  -6.1094075045E+01  -1.3685147178E+00   1.6509214825E+02   1.7632293173E+02   1.0000000000E+01  3.266E-10  -1.
3000002    2    3    0    0    0   6.1094075045E+01   1.3685147178E+00   1.2254527667E+02   1.3730150644E+02   1.0000000000E+01  7.037E-11  -1.
3000001    1    4    0    0    0  -5.5822263206E+01  -4.0044276110E+00   1.5129315822E+02   1.6131577800E+02   1.0000000000E+00     0.000  -1.
3000022   2   4   0   0   0   -5.2718118382E+00   2.6359128932E+00   1.3798990035E+01   1.5007153722E+01   2.5000000000E-01   2.685338E+00   0.
3000001    1    5    0    0    0   4.2252909610E+01  -2.2023674659E+00   9.1438274958E+01   1.0075771395E+02   1.0000000000E+00     0.000   1.
3000022   2   5   0   0   0   1.8841165435E+01   3.5708821837E+00   3.1107001711E+01   3.6543792495E+01   2.5000000000E-01   4.975762E+00   0.
13    1    7    0    0    0  -1.7067798535E+00   8.1407801947E-01   4.3369881336E+00   4.7324741479E+00   1.0500000000E-01     0.000   1.
-13    1    7    0    0    0  -3.5650319847E+00   1.8218348738E+00   9.4620019016E+00   1.0274679574E+01   1.0500000000E-01     0.000  -1.
13    1    9    0    0    0   7.5792284475E+00   1.4987931334E+00   1.2563440547E+01   1.4749310089E+01   1.0500000000E-01     0.000  -1.
-13    1    9    0    0    0   1.1261936987E+01   2.0720890503E+00   1.8543561164E+01   2.1794482407E+01   1.0500000000E-01     0.000   1.
</event>
<event>
 13   1  9.2978750E-05  1.2500000E+02  7.5467720E-03  1.2380620E-01
   21   -1    0    0  502  501   0.0000000000E+00   0.0000000000E+00   2.0835317435E+02   2.0835317435E+02   0.0000000000E+00     0.000  -1.
   21   -1    0    0  501  502   0.0000000000E+00   0.0000000000E+00  -1.8748214479E+01   1.8748214479E+01   0.0000000000E+00     0.000  -1.
   25    2    1    2    0    0   0.0000000000E+00   0.0000000000E+00   1.8960495987E+02   2.2710138883E+02   1.2500000000E+02  8.157E-09  -1.
3000002    2    3    0    0    0  -2.7025801969E+01   1.8565947701E+00   1.9550707729E+02   1.9762808046E+02   1.0000000000E+01  1.068E-09  -1.
3000002    2    3    0    0    0   2.7025801969E+01  -1.8565947701E+00  -5.9021174193E+00   2.9473308370E+01   1.0000000000E+01  2.580E-10  -1.
3000001    1    4    0    0    0  -1.3337555687E+01  -3.7396212384E+00   8.3167979253E+01   8.4319558418E+01   1.0000000000E+00     0.000   1.
3000022   2   4   0   0   0   -1.3688246282E+01   5.5962160085E+00   1.1233909804E+02   1.1330852204E+02   2.5000000000E-01   3.491371E+00   0.
3000001    1    5    0    0    0   1.6886880700E+01  -4.4160935889E+00  -7.2496927313E+00   1.8926876844E+01   1.0000000000E+00     0.000  -1.
3000022   2   5   0   0   0   1.0138921269E+01   2.5594988188E+00   1.3475753121E+00   1.0546431526E+01   2.5000000000E-01   1.173328E+01   0.
13    1    7    0    0    0  -1.0092450964E+01   4.1342319295E+00   8.3088705073E+01   8.3801511775E+01   1.0500000000E-01     0.000  -1.
-13    1    7    0    0    0  -3.5957953186E+00   1.4619840790E+00   2.9250392963E+01   2.9507010267E+01   1.0500000000E-01     0.000   1.
13    1    9    0    0    0   2.3778776726E+00   6.1296158862E-01   3.2422750701E-01   2.4791475574E+00   1.0500000000E-01     0.000   1.
-13    1    9    0    0    0   7.7610435966E+00   1.9465372302E+00   1.0233478051E+00   8.0672839684E+00   1.0500000000E-01     0.000  -1.
</event>
<event>
 13   1  9.2978750E-05  1.2500000E+02  7.5467720E-03  1.2380620E-01
   21   -1    0    0  502  501   0.0000000000E+00   0.0000000000E+00   4.7025332878E+01   4.7025332878E+01   0.0000000000E+00     0.000   1.
   21   -1    0    0  501  502   0.0000000000E+00   0.0000000000E+00  -8.3066929269E+01   8.3066929269E+01   0.0000000000E+00     0.000   1.
   25    2    1    2    0    0   0.0000000000E+00   0.0000000000E+00  -3.6041596391E+01   1.3009226215E+02   1.2500000000E+02  8.269E-08  -1.
3000002    2    3    0    0    0   5.7307234495E+00  -2.6690208837E+01  -7.5601382251E+01   8.0998626144E+01   1.0000000000E+01  5.816E-10  -1.
3000002    2    3    0    0    0  -5.7307234495E+00   2.6690208837E+01   3.9559785860E+01   4.9093636006E+01   1.0000000000E+01  3.015E-09  -1.
3000001    1    4    0    0    0  -1.5576521588E+00  -6.2740836940E+00  -2.7001273097E+01   2.7782353308E+01   1.0000000000E+00     0.000   1.
3000022   2   4   0   0   0   7.2883756083E+00   -2.0416125143E+01   -4.8600109154E+01   5.3216272836E+01   2.5000000000E-01   6.336582E-01   0.
3000001    1    5    0    0    0   1.7199248947E+00   1.3942152458E+01   2.2339868058E+01   2.6408549026E+01   1.0000000000E+00     0.000   1.
3000022   2   5   0   0   0   -7.4506483442E+00   1.2748056379E+01   1.7219917801E+01   2.2685086980E+01   2.5000000000E-01   7.582570E+00   0.
13    1    7    0    0    0   5.1849769451E+00  -1.4417901229E+01  -3.4286004215E+01   3.7553974115E+01   1.0500000000E-01     0.000  -1.
-13    1    7    0    0    0   2.1033986632E+00  -5.9982239141E+00  -1.4314104939E+01   1.5662298722E+01   1.0500000000E-01     0.000   1.
13    1    9    0    0    0  -2.2034146774E+00   3.7648305814E+00   5.0199653549E+00   6.6513203736E+00   1.0500000000E-01     0.000  -1.
-13    1    9    0    0    0  -5.2472336669E+00   8.9832257975E+00   1.2199952446E+01   1.6033766606E+01   1.0500000000E-01     0.000   1.
</event>
<event>
 13   1  9.2978750E-05  1.2500000E+02  7.5467720E-03  1.2380620E-01
   21   -1    0    0  502  501   0.0000000000E+00   0.0000000000E+00   1.0138140791E+02   1.0138140791E+02   0.0000000000E+00     0.000   1.
   21   -1    0    0  501  502   0.0000000000E+00   0.0000000000E+00  -3.8530240216E+01   3.8530240216E+01   0.0000000000E+00     0.000   1.
   25    2    1    2    0    0   0.0000000000E+00   0.0000000000E+00   6.2851167690E+01   1.3991164812E+02   1.2500000000E+02  3.589E-08  -1.
3000002    2    3    0    0    0  -6.1501215665E+01   3.4994728964E+00   3.5238442752E+01   7.1668638095E+01   1.0000000000E+01  7.629E-10   1.
3000002    2    3    0    0    0   6.1501215665E+01  -3.4994728964E+00   2.7612724938E+01   6.8243010025E+01   1.0000000000E+01  2.980E-10   1.
3000001    1    4    0    0    0  -2.8390383844E+01  -3.0060361542E+00   1.4182513688E+01   3.1893476491E+01   1.0000000000E+00     0.000  -1.
3000022   2   4   0   0   0   -3.3110831821E+01   6.5055090507E+00   2.1055929065E+01   3.9775161604E+01   2.5000000000E-01   6.796984E-01   0.
3000001    1    5    0    0    0   3.2408520592E+01  -1.5423259554E+00   1.9921598999E+01   3.8086232198E+01   1.0000000000E+00     0.000   1.
3000022   2   5   0   0   0   2.9092695072E+01   -1.9571469411E+00   7.6911259386E+00   3.0156777827E+01   2.5000000000E-01   1.857886E+00   0.
13    1    7    0    0    0  -1.9261601772E+01   3.7896096555E+00   1.2173421184E+01   2.3099213244E+01   1.0500000000E-01     0.000   1.
-13    1    7    0    0    0  -1.3849230049E+01   2.7158993951E+00   8.8825078806E+00   1.6675948360E+01   1.0500000000E-01     0.000  -1.
13    1    9    0    0    0   2.0049130849E+01  -1.3005768820E+00   5.2916483503E+00   2.0776710887E+01   1.0500000000E-01     0.000  -1.
-13    1    9    0    0    0   9.0435642233E+00  -6.5657005906E-01   2.3994775884E+00   9.3800669401E+00   1.0500000000E-01     0.000   1.
</event>
<event>
 13   1  9.2978750E-05  1.2500000E+02  7.5467720E-03  1.2380620E-01
   21   -1    0    0  502  501   0.0000000000E+00   0.0000000000E+00   1.3737529340E+02   1.3737529340E+02   0.0000000000E+00     0.000  -1.
   21   -1    0    0  501  502   0.0000000000E+00   0.0000000000E+00  -2.8434880125E+01   2.8434880125E+01   0.0000000000E+00     0.000  -1.
   25    2    1    2    0    0   0.0000000000E+00   0.0000000000E+00   1.0894041328E+02   1.6581017353E+02   1.2500000000E+02  7.688E-08  -1.
3000002    2    3    0    0    0   4.0631950558E+01   4.3718139444E+01   3.3749103458E+01   6.9290930913E+01   1.0000000000E+01  2.978E-10  -1.
3000002    2    3    0    0    0  -4.0631950558E+01  -4.3718139444E+01   7.5191309822E+01   9.6519242617E+01   1.0000000000E+01  3.791E-10  -1.
3000001    1    4    0    0    0   4.0949005508E+01   4.2230038813E+01   3.2046273502E+01   6.6993737585E+01   1.0000000000E+00     0.000  -1.
3000022   2   4   0   0   0   -3.1705494941E-01   1.4881006308E+00   1.7028299565E+00   2.2971933286E+00   2.5000000000E-01   1.418449E+00   0.
3000001    1    5    0    0    0  -3.0461371931E+00  -7.7539448040E+00   8.5701102197E+00   1.1993723400E+01   1.0000000000E+00     0.000  -1.
3000022   2   5   0   0   0   -3.7585813365E+01   -3.5964194640E+01   6.6621199602E+01   8.4525519217E+01   2.5000000000E-01   4.523065E+00   0.
13    1    7    0    0    0  -5.7434482746E-02   3.5966809720E-01   4.0357848174E-01   5.5367901430E-01   1.0500000000E-01     0.000   1.
-13    1    7    0    0    0  -2.5962046667E-01   1.1284325336E+00   1.2992514748E+00   1.7435143143E+00   1.0500000000E-01     0.000  -1.
13    1    9    0    0    0  -8.7712937902E+00  -8.3773791643E+00   1.5541992458E+01   1.9714984935E+01   1.0500000000E-01     0.000   1.
-13    1    9    0    0    0  -2.8814519575E+01  -2.7586815475E+01   5.1079207144E+01   6.4810534281E+01   1.0500000000E-01     0.000  -1.
</event>
<event>
 13   1  9.2978750E-05  1.2500000E+02  7.5467720E-03  1.2380620E-01
   21   -1    0    0  502  501   0.0000000000E+00   0.0000000000E+00   1.6777269702E+02   1.6777269702E+02   0.0000000000E+00     0.000   1.
   21   -1    0    0  501  502   0.0000000000E+00   0.0000000000E+00  -2.3282989839E+01   2.3282989839E+01   0.0000000000E+00     0.000   1.
   25    2    1    2    0    0   0.0000000000E+00   0.0000000000E+00   1.4448970718E+02   1.9105568686E+02   1.2500000000E+02  1.404E-09  -1.
3000002    2    3    0    0    0  -4.1889720317E+00   6.1497616764E+01   7.6214590484E+01   9.8530036827E+01   1.0000000000E+01  7.031E-10  -1.
3000002    2    3    0    0    0   4.1889720317E+00  -6.1497616764E+01   6.8275116696E+01   9.2525650033E+01   1.0000000000E+01  1.698E-09  -1.
3000001    1    4    0    0    0   9.1636191899E-01   4.7569651299E+01   5.9168977333E+01   7.5932070448E+01   1.0000000000E+00     0.000  -1.
3000022   2   4   0   0   0   -5.1053339507E+00   1.3927965465E+01   1.7045613152E+01   2.2597966379E+01   2.5000000000E-01   9.347811E+00   0.
3000001    1    5    0    0    0  -2.5040054169E+00  -2.2869791785E+01   2.9017934829E+01   3.7045080121E+01   1.0000000000E+00     0.000  -1.
3000022   2   5   0   0   0   6.6929774485E+00   -3.8627824979E+01   3.9257181866E+01   5.5480569913E+01   2.5000000000E-01   8.853220E+00   0.
13    1    7    0    0    0  -1.8912616274E+00   5.0412234331E+00   6.2515042453E+00   8.2512504855E+00   1.0500000000E-01     0.000  -1.
-13    1    7    0    0    0  -3.2140723233E+00   8.8867420318E+00   1.0794108906E+01   1.4346715893E+01   1.0500000000E-01     0.000   1.
13    1    9    0    0    0   3.5176827296E+00  -2.0341266781E+01   2.0766522918E+01   2.9281405792E+01   1.0500000000E-01     0.000   1.
-13    1    9    0    0    0   3.1752947189E+00  -1.8286558198E+01   1.8490658949E+01   2.6199164121E+01   1.0500000000E-01     0.000  -1.
</event>
<event>
 13   1  9.2978750E-05  1.2500000E+02  7.5467720E-03  1.2380620E-01
   21   -1    0    0  502  501   0.0000000000E+00   0.0000000000E+00   2.1821876540E+02   2.1821876540E+02   0.0000000000E+00     0.000  -1.
   21   -1    0    0  501  502   0.0000000000E+00   0.0000000000E+00  -1.7900614518E+01   1.7900614518E+01   0.0000000000E+00     0.000  -1.
   25    2    1    2    0    0   0.0000000000E+00   0.0000000000E+00   2.0031815088E+02   2.3611937991E+02   1.2500000000E+02  4.590E-08  -1.
3000002    2    3    0    0    0   6.0637800488E+01   1.1305219397E+01   1.0247191994E+02   1.2002185305E+02   1.0000000000E+01  2.507E-10  -1.
3000002    2    3    0    0    0  -6.0637800488E+01  -1.1305219397E+01   9.7846230937E+01   1.1609752686E+02   1.0000000000E+01  1.037E-11  -1.
3000001    1    4    0    0    0   8.3116863761E-01   1.1869794172E+00   3.9505999951E+00   4.3251591603E+00   1.0000000000E+00     0.000   1.
3000022   2   4   0   0   0   5.9806631850E+01   1.0118239980E+01   9.8521319948E+01   1.1569669389E+02   2.5000000000E-01   3.447070E-01   0.
3000001    1    5    0    0    0  -1.6988627740E+01  -8.4021605567E-01   2.0360293123E+01   2.6549217909E+01   1.0000000000E+00     0.000  -1.
3000022   2   5   0   0   0   -4.3649172748E+01   -1.0465003341E+01   7.7485937814E+01   8.9548308948E+01   2.5000000000E-01   1.428185E+00   0.
13    1    7    0    0    0   2.3944011459E+01   4.0122371946E+00   3.9337571529E+01   4.6226283551E+01   1.0500000000E-01     0.000   1.
-13    1    7    0    0    0   3.5862620391E+01   6.1060027854E+00   5.9183748419E+01   6.9470410343E+01   1.0500000000E-01     0.000  -1.
13    1    9    0    0    0  -3.3324725572E+01  -7.9730824787E+00   5.9154520754E+01   6.8362092781E+01   1.0500000000E-01     0.000   1.
-13    1    9    0    0    0  -1.0324447176E+01  -2.4919208628E+00   1.8331417059E+01   2.1186216167E+01   1.0500000000E-01     0.000  -1.
</event>
<event>
 13   1  9.2978750E-05  1.2500000E+02  7.5467720E-03  1.2380620E-01
   21   -1    0    0  502  501   0.0000000000E+00   0.0000000000E+00   9.5467617870E+01   9.5467617870E+01   0.0000000000E+00     0.000   1.
   21   -1    0    0  501  502   0.0000000000E+00   0.0000000000E+00  -4.0917015499E+01   4.0917015499E+01   0.0000000000E+00     0.000   1.
   25    2    1    2    0    0   0.0000000000E+00   0.0000000000E+00   5.4550602371E+01   1.3638463337E+02   1.2500000000E+02  2.563E-09  -1.
3000002    2    3    0    0    0   1.8919268335E+01   5.7026400224E+01   4.2562103272E+01   7.4306673131E+01   1.0000000000E+01  2.212E-09   1.
3000002    2    3    0    0    0  -1.8919268335E+01  -5.7026400224E+01   1.1988499099E+01   6.2077960239E+01   1.0000000000E+01  4.717E-10   1.
3000001    1    4    0    0    0   1.1385754794E+01   4.6975410055E+01   3.3831120927E+01   5.9007366534E+01   1.0000000000E+00     0.000   1.
3000022   2   4   0   0   0   7.5335135405E+00   1.0050990169E+01   8.7309823454E+00   1.5299306597E+01   2.5000000000E-01   4.821932E+00   0.
3000001    1    5    0    0    0  -7.5954996394E+00  -1.2536126504E+01   2.5967156724E-01   1.4693995775E+01   1.0000000000E+00     0.000  -1.
3000022   2   5   0   0   0   -1.1323768695E+01   -4.4490273720E+01   1.1728827531E+01   4.7383964465E+01   2.5000000000E-01   1.223595E+00   0.
13    1    7    0    0    0   4.6663311273E+00   6.1745113285E+00   5.4438075508E+00   9.4628379457E+00   1.0500000000E-01     0.000   1.
-13    1    7    0    0    0   2.8671824132E+00   3.8764788404E+00   3.2871747946E+00   5.8364686516E+00   1.0500000000E-01     0.000  -1.
13    1    9    0    0    0  -5.1663836284E+00  -2.0549971982E+01   5.3870732799E+00   2.1863770301E+01   1.0500000000E-01     0.000   1.
-13    1    9    0    0    0  -6.1573850671E+00  -2.3940301737E+01   6.3417542515E+00   2.5520194163E+01   1.0500000000E-01     0.000  -1.
</event>
<event>
 13   1  9.2978750E-05  1.2500000E+02  7.5467720E-03  1.2380620E-01
   21   -1    0    0  502  501   0.0000000000E+00   0.0000000000E+00   2.6431377658E+01   2.6431377658E+01   0.0000000000E+00     0.000   1.
   21   -1    0    0  501  502   0.0000000000E+00   0.0000000000E+00  -1.4778836164E+02   1.4778836164E+02   0.0000000000E+00     0.000   1.
   25    2    1    2    0    0   0.0000000000E+00   0.0000000000E+00  -1.2135698398E+02   1.7421973930E+02   1.2500000000E+02  2.266E-08  -1.
3000002    2    3    0    0    0  -8.8911562470E+00   5.8146026708E+01  -3.4744221643E+01   6.9044724772E+01   1.0000000000E+01  9.966E-10  -1.
3000002    2    3    0    0    0   8.8911562470E+00  -5.8146026708E+01  -8.6612762337E+01   1.0517501453E+02   1.0000000000E+01  1.399E-09  -1.
3000001    1    4    0    0    0  -5.7984457258E+00   3.2978077374E+01  -2.5320958880E+01   4.1991981600E+01   1.0000000000E+00     0.000  -1.
3000022   2   4   0   0   0   -3.0927105212E+00   2.5167949334E+01   -9.4232627636E+00   2.7052743172E+01   2.5000000000E-01   4.395396E+00   0.
3000001    1    5    0    0    0  -3.5174131321E-02  -2.1158134176E+01  -2.5082325677E+01   3.2829726475E+01   1.0000000000E+00     0.000   1.
3000022   2   5   0   0   0   8.9263303783E+00   -3.6987892532E+01   -6.1530436659E+01   7.2345288053E+01   2.5000000000E-01   3.128592E+00   0.
13    1    7    0    0    0  -1.8702363108E+00   1.4963886604E+01  -5.5449713867E+00   1.6067775790E+01   1.0500000000E-01     0.000  -1.
-13    1    7    0    0    0  -1.2224742104E+00   1.0204062729E+01  -3.8782913769E+00   1.0984967382E+01   1.0500000000E-01     0.000   1.
13    1    9    0    0    0   5.8946737770E+00  -2.4653303836E+01  -4.0981269759E+01   4.8187218897E+01   1.0500000000E-01     0.000   1.
-13    1    9    0    0    0   3.0316566014E+00  -1.2334588696E+01  -2.0549166901E+01   2.4158069156E+01   1.0500000000E-01     0.000  -1.
</event>
<event>
 13   1  9.2978750E-05  1.2500000E+02  7.5467720E-03  1.2380620E-01
   21   -1    0    0  502  501   0.0000000000E+00   0.0000000000E+00   5.1044004853E+00   5.1044004853E+00   0.0000000000E+00     0.000  -1.
   21   -1    0    0  501  502   0.0000000000E+00   0.0000000000E+00  -7.6527106586E+02   7.6527106586E+02   0.0000000000E+00     0.000  -1.
   25    2    1    2    0    0   0.0000000000E+00   0.0000000000E+00  -7.6016666538E+02   7.7037546635E+02   1.2500000000E+02  3.704E-10  -1.
3000002    2    3    0    0    0   5.7124801300E+01  -6.7853293538E+00  -5.1747358976E+02   5.2075733285E+02   1.0000000000E+01  1.916E-10  -1.
3000002    2    3    0    0    0  -5.7124801300E+01   6.7853293538E+00  -2.4269307562E+02   2.4961813350E+02   1.0000000000E+01  8.738E-10  -1.
3000001    1    4    0    0    0   9.0616116906E+00  -4.5609406436E+00  -8.0572053743E+01   8.1214351136E+01   1.0000000000E+00     0.000   1.
3000022   2   4   0   0   0   4.8063189610E+01   -2.2243887102E+00   -4.3690153602E+02   4.3954298172E+02   2.5000000000E-01   2.009664E+00   0.
3000001    1    5    0    0    0  -1.3662651160E+01   4.8333010079E+00  -7.3425421845E+01   7.4848656691E+01   1.0000000000E+00     0.000  -1.
3000022   2   5   0   0   0   -4.3462150140E+01   1.9520283459E+00   -1.6926765377E+02   1.7476947681E+02   2.5000000000E-01   4.164774E+00   0.
13    1    7    0    0    0   2.3879598320E+01  -1.1729382096E+00  -2.1713333968E+02   2.1844566653E+02   1.0500000000E-01     0.000   1.
-13    1    7    0    0    0   2.4183591290E+01  -1.0514505006E+00  -2.1976819634E+02   2.2109731519E+02   1.0500000000E-01     0.000  -1.
13    1    9    0    0    0  -1.1940255057E+01   5.5251554762E-01  -4.6643751400E+01   4.8151069915E+01   1.0500000000E-01     0.000   1.
-13    1    9    0    0    0  -3.1521895083E+01   1.3995127983E+00  -1.2262390237E+02   1.2661840689E+02   1.0500000000E-01     0.000  -1.
</event>
<event>
 13   1  9.2978750E-05  1.2500000E+02  7.5467720E-03  1.2380620E-01
   21   -1    0    0  502  501   0.0000000000E+00   0.0000000000E+00   1.8607223412E+00   1.8607223412E+00   0.0000000000E+00     0.000  -1.
   21   -1    0    0  501  502   0.0000000000E+00   0.0000000000E+00  -2.0993191265E+03   2.0993191265E+03   0.0000000000E+00     0.000  -1.
   25    2    1    2    0    0   0.0000000000E+00   0.0000000000E+00  -2.0974584041E+03   2.1011798488E+03   1.2500000000E+02  8.251E-08  -1.
3000002    2    3    0    0    0   2.0253828638E+01   5.6353594673E+01  -7.9923227327E+02   8.0153488498E+02   1.0000000000E+01  9.397E-10   1.
3000002    2    3    0    0    0  -2.0253828638E+01  -5.6353594673E+01  -1.2982261308E+03   1.2996449638E+03   1.0000000000E+01  1.842E-10   1.
3000001    1    4    0    0    0   9.8471667638E+00   2.9229299508E+01  -4.7613155922E+02   4.7713056947E+02   1.0000000000E+00     0.000  -1.
3000022   2   4   0   0   0   1.0406661874E+01   2.7124295166E+01   -3.2310071405E+02   3.2440431551E+02   2.5000000000E-01   8.818464E-01   0.
3000001    1    5    0    0    0  -1.2393448887E+01  -2.0618895079E+01  -4.9111457386E+02   4.9170444483E+02   1.0000000000E+00     0.000  -1.
3000022   2   5   0   0   0   -7.8603797514E+00   -3.5734699594E+01   -8.0711155697E+02   8.0794051898E+02   2.5000000000E-01   8.478315E+00   0.
13    1    7    0    0    0   7.0419541743E+00   1.8419161006E+01  -2.1879576131E+02   2.1968261379E+02   1.0500000000E-01     0.000   1.
-13    1    7    0    0    0   3.3647076999E+00   8.7051341597E+00  -1.0430495274E+02   1.0472170172E+02   1.0500000000E-01     0.000  -1.
13    1    9    0    0    0  -3.5955875763E+00  -1.6596064299E+01  -3.7547675838E+02   3.7586056552E+02   1.0500000000E-01     0.000   1.
-13    1    9    0    0    0  -4.2647921751E+00  -1.9138635295E+01  -4.3163479858E+02   4.3207995347E+02   1.0500000000E-01     0.000  -1.
</event>
<event>
 13   1  9.2978750E-05  1.2500000E+02  7.5467720E-03  1.2380620E-01
   21   -1    0    0  502  501   0.0000000000E+00   0.0000000000E+00   6.1389042537E+00   6.1389042537E+00   0.0000000000E+00     0.000  -1.
   21   -1    0    0  501  502   0.0000000000E+00   0.0000000000E+00  -6.3631062459E+02   6.3631062459E+02   0.0000000000E+00     0.000  -1.
   25    2    1    2    0    0   0.0000000000E+00   0.0000000000E+00  -6.3017172034E+02   6.4244952885E+02   1.2500000000E+02  5.404E-08  -1.
3000002    2    3    0    0    0   1.9238537263E+01   3.8105510990E+00  -1.4447666989E+01   2.6332046960E+01   1.0000000000E+01  1.241E-10   1.
3000002    2    3    0    0    0  -1.9238537263E+01  -3.8105510990E+00  -6.1572405335E+02   6.1611748189E+02   1.0000000000E+01  2.048E-09   1.
3000001    1    4    0    0    0   1.6140511347E+00   1.7183204531E+00   1.0507626366E+00   2.7680116263E+00   1.0000000000E+00     0.000  -1.
3000022   2   4   0   0   0   1.7624486128E+01   2.0922306459E+00   -1.5498429626E+01   2.3564035334E+01   2.5000000000E-01   5.807492E+00   0.
3000001    1    5    0    0    0  -4.4746136074E+00  -3.2639552325E+00  -8.4094158417E+01   8.4282281949E+01   1.0000000000E+00     0.000  -1.
3000022   2   5   0   0   0   -1.4763923655E+01   -5.4659586656E-01   -5.3162989493E+02   5.3183519994E+02   2.5000000000E-01   1.844978E-01   0.
13    1    7    0    0    0   5.6838534708E+00   6.3446922862E-01  -5.0371321850E+00   7.6218414526E+00   1.0500000000E-01     0.000   1.
-13    1    7    0    0    0   1.1940632657E+01   1.4577614173E+00  -1.0461297441E+01   1.5942193881E+01   1.0500000000E-01     0.000  -1.
13    1    9    0    0    0  -8.6452331348E+00  -2.5650596558E-01  -3.1082905693E+02   3.1094938416E+02   1.0500000000E-01     0.000  -1.
-13    1    9    0    0    0  -6.1186905203E+00  -2.9008990098E-01  -2.2080083800E+02   2.2088581578E+02   1.0500000000E-01     0.000   1.
</event>
<event>
 13   1  9.2978750E-05  1.2500000E+02  7.5467720E-03  1.2380620E-01
   21   -1    0    0  502  501   0.0000000000E+00   0.0000000000E+00   2.1677245459E+02   2.1677245459E+02   0.0000000000E+00     0.000   1.
   21   -1    0    0  501  502   0.0000000000E+00   0.0000000000E+00  -1.8020047830E+01   1.8020047830E+01   0.0000000000E+00     0.000   1.
   25    2    1    2    0    0   0.0000000000E+00   0.0000000000E+00   1.9875240676E+02   2.3479250242E+02   1.2500000000E+02  1.831E-09  -1.
3000002    2    3    0    0    0  -4.7251294114E+01  -3.9194389033E+01   1.1085792804E+02   1.2711555820E+02   1.0000000000E+01  5.147E-10  -1.
3000002    2    3    0    0    0   4.7251294114E+01   3.9194389033E+01   8.7894478722E+01   1.0767694422E+02   1.0000000000E+01  1.224E-09  -1.
3000001    1    4    0    0    0  -1.4728024778E+01  -1.8030936423E+01   4.5015735340E+01   5.0689701225E+01   1.0000000000E+00     0.000  -1.
3000022   2   4   0   0   0   -3.2523269336E+01   -2.1163452610E+01   6.5842192698E+01   7.6425856972E+01   2.5000000000E-01   4.314197E+00   0.
3000001    1    5    0    0    0   4.5302689701E+00   8.0341087791E-01   5.5251575206E+00   7.2592128779E+00   1.0000000000E+00     0.000   1.
3000022   2   5   0   0   0   4.2721025144E+01   3.8390978155E+01   8.2369321202E+01   1.0041773134E+02   2.5000000000E-01   9.611387E+00   0.
13    1    7    0    0    0  -2.1924373278E+01  -1.4280289127E+01   4.4497155405E+01   5.1619886335E+01   1.0500000000E-01     0.000  -1.
-13    1    7    0    0    0  -1.0598896058E+01  -6.8831634837E+00   2.1345037293E+01   2.4805970637E+01   1.0500000000E-01     0.000   1.
13    1    9    0    0    0   2.4478439133E+01   2.2077073283E+01   4.7320276274E+01   5.7669842369E+01   1.0500000000E-01     0.000   1.
-13    1    9    0    0    0   1.8242586011E+01   1.6313904873E+01   3.5049044927E+01   4.2747888976E+01   1.0500000000E-01     0.000  -1.
</event>
<event>
 13   1  9.2978750E-05  1.2500000E+02  7.5467720E-03  1.2380620E-01
   21   -1    0    0  502  501   0.0000000000E+00   0.0000000000E+00   3.4734577641E+01   3.4734577641E+01   0.0000000000E+00     0.000  -1.
   21   -1    0    0  501  502   0.0000000000E+00   0.0000000000E+00  -1.1245998268E+02   1.1245998268E+02   0.0000000000E+00     0.000  -1.
   25    2    1    2    0    0   0.0000000000E+00   0.0000000000E+00  -7.7725405042E+01   1.4719456032E+02   1.2500000000E+02  3.336E-08  -1.
3000002    2    3    0    0    0  -9.2328484525E+00   6.0335740439E+01  -2.8290702012E+01   6.8014784313E+01   1.0000000000E+01  5.821E-10   1.
3000002    2    3    0    0    0   9.2328484525E+00  -6.0335740439E+01  -4.9434703030E+01   7.9179776007E+01   1.0000000000E+01  6.300E-10   1.
3000001    1    4    0    0    0  -9.1627668850E+00   3.4582150412E+01  -1.9770844603E+01   4.0887256211E+01   1.0000000000E+00     0.000   1.
3000022   2   4   0   0   0   -7.0081567437E-02   2.5753590027E+01   -8.5198574090E+00   2.7127528103E+01   2.5000000000E-01   1.413448E+00   0.
3000001    1    5    0    0    0   1.8896346884E+00  -3.9166011165E+01  -2.8210628795E+01   4.8315491582E+01   1.0000000000E+00     0.000   1.
3000022   2   5   0   0   0   7.3432137641E+00   -2.1169729274E+01   -2.1224074235E+01   3.0864284425E+01   2.5000000000E-01   5.120161E+00   0.
13    1    7    0    0    0  -9.0702323791E-02   1.6702586499E+01  -5.4894296051E+00   1.7582078519E+01   1.0500000000E-01     0.000  -1.
-13    1    7    0    0    0   2.0620756355E-02   9.0510035274E+00  -3.0304278038E+00   9.5454495830E+00   1.0500000000E-01     0.000   1.
13    1    9    0    0    0   3.5766318383E+00  -1.0362392424E+01  -1.0293074128E+01   1.5037615239E+01   1.0500000000E-01     0.000   1.
-13    1    9    0    0    0   3.7665819258E+00  -1.0807336850E+01  -1.0931000107E+01   1.5826669186E+01   1.0500000000E-01     0.000  -1.
</event>
<event>
 13   1  9.2978750E-05  1.2500000E+02  7.5467720E-03  1.2380620E-01
   21   -1    0    0  502  501   0.0000000000E+00   0.0000000000E+00   2.5812942093E+01   2.5812942093E+01   0.0000000000E+00     0.000   1.
   21   -1    0    0  501  502   0.0000000000E+00   0.0000000000E+00  -1.5132912730E+02   1.5132912730E+02   0.0000000000E+00     0.000   1.
   25    2    1    2    0    0   0.0000000000E+00   0.0000000000E+00  -1.2551618521E+02   1.7714206940E+02   1.2500000000E+02  2.824E-08  -1.
3000002    2    3    0    0    0   2.5308184088E+01  -5.6161521601E+01  -6.7590779681E+01   9.1995294381E+01   1.0000000000E+01  3.574E-10  -1.
3000002    2    3    0    0    0  -2.5308184088E+01   5.6161521601E+01  -5.7925405529E+01   8.5146775019E+01   1.0000000000E+01  3.328E-10  -1.
3000001    1    4    0    0    0   4.1971669707E+00  -2.0318609966E+01  -2.1040085773E+01   2.9565982664E+01   1.0000000000E+00     0.000  -1.
3000022   2   4   0   0   0   2.1111017117E+01   -3.5842911635E+01   -4.6550693908E+01   6.2429311717E+01   2.5000000000E-01   1.194667E-01   0.
3000001    1    5    0    0    0  -1.5556413575E-01   3.5129487380E+00  -1.4194799796E+00   3.9217256978E+00   1.0000000000E+00     0.000   1.
3000022   2   5   0   0   0   -2.5152619952E+01   5.2648572863E+01   -5.6505925550E+01   8.1225049321E+01   2.5000000000E-01   1.176368E+00   0.
13    1    7    0    0    0   5.2504887046E+00  -8.9280725291E+00  -1.1553923800E+01   1.5517161174E+01   1.0500000000E-01     0.000  -1.
-13    1    7    0    0    0   1.5860528413E+01  -2.6914839106E+01  -3.4996770108E+01   4.6912150544E+01   1.0500000000E-01     0.000   1.
13    1    9    0    0    0  -1.6906853113E+01   3.5268854524E+01  -3.7891375614E+01   5.4456415164E+01   1.0500000000E-01     0.000   1.
-13    1    9    0    0    0  -8.2457668398E+00   1.7379718339E+01  -1.8614549936E+01   2.6768634157E+01   1.0500000000E-01     0.000  -1.
</event>
<event>
 13   1  9.2978750E-05  1.2500000E+02  7.5467720E-03  1.2380620E-01
   21   -1    0    0  502  501   0.0000000000E+00   0.0000000000E+00   4.2184178914E+01   4.2184178914E+01   0.0000000000E+00     0.000   1.
   21   -1    0    0  501  502   0.0000000000E+00   0.0000000000E+00  -9.2599882244E+01   9.2599882244E+01   0.0000000000E+00     0.000   1.
   25    2    1    2    0    0   0.0000000000E+00   0.0000000000E+00  -5.0415703329E+01   1.3478406116E+02   1.2500000000E+02  2.537E-08  -1.
3000002    2    3    0    0    0   2.0960918496E+01   5.7788318750E+01  -1.9563621781E+01   6.5280817897E+01   1.0000000000E+01  3.323E-11  -1.
3000002    2    3    0    0    0  -2.0960918496E+01  -5.7788318750E+01  -3.0852081548E+01   6.9503243263E+01   1.0000000000E+01  2.407E-10  -1.
3000001    1    4    0    0    0   1.5721100341E+01   3.3138833134E+01  -8.0070895765E+00   3.7555941486E+01   1.0000000000E+00     0.000   1.
3000022   2   4   0   0   0   5.2398181551E+00   2.4649485616E+01   -1.1556532204E+01   2.7724876411E+01   2.5000000000E-01   4.741239E+00   0.
3000001    1    5    0    0    0  -9.3766624153E+00  -3.3283674654E+01  -2.1963554928E+01   4.0977097770E+01   1.0000000000E+00     0.000  -1.
3000022   2   5   0   0   0   -1.1584256081E+01   -2.4504644096E+01   -8.8885266200E+00   2.8526145493E+01   2.5000000000E-01   1.051721E+01   0.
13    1    7    0    0    0   1.8129208495E+00   8.4397796980E+00  -4.0161150499E+00   9.5213847969E+00   1.0500000000E-01     0.000  -1.
-13    1    7    0    0    0   3.4268973056E+00   1.6209705918E+01  -7.5404171541E+00   1.8203491614E+01   1.0500000000E-01     0.000   1.
13    1    9    0    0    0  -4.5063843359E+00  -9.6213375497E+00  -3.5360098265E+00   1.1197858122E+01   1.0500000000E-01     0.000  -1.
-13    1    9    0    0    0  -7.0778717447E+00  -1.4883306546E+01  -5.3525167935E+00   1.7328287371E+01   1.0500000000E-01     0.000   1.
</event>
<event>
 13   1  9.2978750E-05  1.2500000E+02  7.5467720E-03  1.2380620E-01
   21   -1    0    0  502  501   0.0000000000E+00   0.0000000000E+00   2.8464951616E+01   2.8464951616E+01   0.0000000000E+00     0.000  -1.
   21   -1    0    0  501  502   0.0000000000E+00   0.0000000000E+00  -1.3723016476E+02   1.3723016476E+02   0.0000000000E+00     0.000  -1.
   25    2    1    2    0    0   0.0000000000E+00   0.0000000000E+00  -1.0876521314E+02   1.6569511637E+02   1.2500000000E+02  1.075E-07  -1.
3000002    2    3    0    0    0  -2.9745707564E+01  -4.3656481176E+01  -9.6625272614E+01   1.1057639339E+02   1.0000000000E+01  2.869E-10   1.
3000002    2    3    0    0    0   2.9745707564E+01   4.3656481176E+01  -1.2139940526E+01   5.5118722981E+01   1.0000000000E+01  3.575E-11   1.
3000001    1    4    0    0    0  -2.8704409428E+01  -3.9414624577E+01  -8.3018419744E+01   9.6283507247E+01   1.0000000000E+00     0.000   1.
3000022   2   4   0   0   0   -1.0412981362E+00   -4.2418565989E+00   -1.3606852870E+01   1.4292886141E+01   2.5000000000E-01   4.905990E-01   0.
3000001    1    5    0    0    0   1.9186595558E+01   2.3770196448E+01  -1.1300225909E+01   3.2585929385E+01   1.0000000000E+00     0.000   1.
3000022   2   5   0   0   0   1.0559112006E+01   1.9886284728E+01   -8.3971461729E-01   2.2532793596E+01   2.5000000000E-01   2.389186E-02   0.
13    1    7    0    0    0  -3.9437413292E-01  -1.7958570229E+00  -5.8819436464E+00   6.1635151872E+00   1.0500000000E-01     0.000  -1.
-13    1    7    0    0    0  -6.4692400330E-01  -2.4459995761E+00  -7.7249092237E+00   8.1293709539E+00   1.0500000000E-01     0.000   1.
13    1    9    0    0    0   7.0637836077E+00   1.3194314847E+01  -5.4120141458E-01   1.4976344918E+01   1.0500000000E-01     0.000  -1.
-13    1    9    0    0    0   3.4953283979E+00   6.6919698806E+00  -2.9851320271E-01   7.5564486781E+00   1.0500000000E-01     0.000   1.
</event>
<event>
 13   1  9.2978750E-05  1.2500000E+02  7.5467720E-03  1.2380620E-01
   21   -1    0    0  502  501   0.0000000000E+00   0.0000000000E+00   1.8431023360E+02   1.8431023360E+02   0.0000000000E+00     0.000  -1.
   21   -1    0    0  501  502   0.0000000000E+00   0.0000000000E+00  -2.1193885568E+01   2.1193885568E+01   0.0000000000E+00     0.000  -1.
   25    2    1    2    0    0   0.0000000000E+00   0.0000000000E+00   1.6311634803E+02   2.0550411917E+02   1.2500000000E+02  2.737E-08  -1.
3000002    2    3    0    0    0  -6.1023244464E+01  -2.1646451023E+00   6.7063811577E+01   9.1247339011E+01   1.0000000000E+01  1.627E-09   1.
3000002    2    3    0    0    0   6.1023244464E+01   2.1646451023E+00   9.6052536453E+01   1.1425678016E+02   1.0000000000E+01  6.249E-10   1.
3000001    1    4    0    0    0  -1.5446634997E+01  -2.6582754692E+00   1.1994314795E+01   1.9761795177E+01   1.0000000000E+00     0.000  -1.
3000022   2   4   0   0   0   -4.5576609466E+01   4.9363036685E-01   5.5069496782E+01   7.1485543834E+01   2.5000000000E-01   4.483397E-01   0.
3000001    1    5    0    0    0   6.1349019532E+01   2.0891114123E+00   9.4860377957E+01   1.1299361880E+02   1.0000000000E+00     0.000   1.
3000022   2   5   0   0   0   -3.2577506782E-01   7.5533690015E-02   1.1921584960E+00   1.2631613566E+00   2.5000000000E-01   1.368869E+00   0.
13    1    7    0    0    0  -2.9169993377E+01   3.4839419113E-01   3.5321392619E+01   4.5810715926E+01   1.0500000000E-01     0.000   1.
-13    1    7    0    0    0  -1.6406616090E+01   1.4523617572E-01   1.9748104164E+01   2.5674827908E+01   1.0500000000E-01     0.000  -1.
13    1    9    0    0    0  -1.0891553068E-01  -2.0471252076E-02   5.4458187532E-01   5.6557588696E-01   1.0500000000E-01     0.000  -1.
-13    1    9    0    0    0  -2.1685953714E-01   9.6004942091E-02   6.4757662069E-01   6.9758546962E-01   1.0500000000E-01     0.000   1.
</event>
<event>
 13   1  9.2978750E-05  1.2500000E+02  7.5467720E-03  1.2380620E-01
   21   -1    0    0  502  501   0.0000000000E+00   0.0000000000E+00   8.0311117284E+00   8.0311117284E+00   0.0000000000E+00     0.000   1.
   21   -1    0    0  501  502   0.0000000000E+00   0.0000000000E+00  -4.8638969698E+02   4.8638969698E+02   0.0000000000E+00     0.000   1.
   25    2    1    2    0    0   0.0000000000E+00   0.0000000000E+00  -4.7835858525E+02   4.9442080871E+02   1.2500000000E+02  7.630E-08  -1.
3000002    2    3    0    0    0  -3.4396903217E+01  -3.2238840825E+01  -8.1769611565E+01   9.4914483532E+01   1.0000000000E+01  1.612E-10   1.
3000002    2    3    0    0    0   3.4396903217E+01   3.2238840825E+01  -3.9658897368E+02   3.9950632518E+02   1.0000000000E+01  6.333E-10   1.
3000001    1    4    0    0    0  -5.2836926855E+00  -4.6897662386E+00  -2.0429141917E+01   2.1639342764E+01   1.0000000000E+00     0.000  -1.
3000022   2   4   0   0   0   -2.9113210531E+01   -2.7549074587E+01   -6.1340469648E+01   7.3275140769E+01   2.5000000000E-01   9.682390E+00   0.
3000001    1    5    0    0    0   3.1494476613E+01   2.8507558622E+01  -3.7527339477E+02   3.7767142304E+02   1.0000000000E+00     0.000   1.
3000022   2   5   0   0   0   2.9024266041E+00   3.7312822036E+00   -2.1315578914E+01   2.1834902141E+01   2.5000000000E-01   4.069143E+00   0.
13    1    7    0    0    0  -1.6341471357E+01  -1.5391942453E+01  -3.4280702969E+01   4.0977227819E+01   1.0500000000E-01     0.000  -1.
-13    1    7    0    0    0  -1.2771739174E+01  -1.2157132133E+01  -2.7059766678E+01   3.2297912950E+01   1.0500000000E-01     0.000   1.
13    1    9    0    0    0   2.2274601083E+00   2.8483697295E+00  -1.6343165573E+01   1.6738723805E+01   1.0500000000E-01     0.000  -1.
-13    1    9    0    0    0   6.7496649587E-01   8.8291247404E-01  -4.9724133404E+00   5.0961783363E+00   1.0500000000E-01     0.000   1.
</event>
<event>
 13   1  9.2978750E-05  1.2500000E+02  7.5467720E-03  1.2380620E-01
   21   -1    0    0  502  501   0.0000000000E+00   0.0000000000E+00   6.8709455939E+01   6.8709455939E+01   0.0000000000E+00     0.000  -1.
   21   -1    0    0  501  502   0.0000000000E+00   0.0000000000E+00  -5.6851709079E+01   5.6851709079E+01   0.0000000000E+00     0.000  -1.
   25    2    1    2    0    0   0.0000000000E+00   0.0000000000E+00   1.1857746860E+01   1.2556116502E+02   1.2500000000E+02  2.705E-09  -1.
3000002    2    3    0    0    0   3.5665060204E+01   1.0247642999E+01  -4.3579706821E+01   5.8105090594E+01   1.0000000000E+01  9.195E-10  -1.
3000002    2    3    0    0    0  -3.5665060204E+01  -1.0247642999E+01   5.5437453681E+01   6.7456074426E+01   1.0000000000E+01  2.562E-10  -1.
3000001    1    4    0    0    0   1.5651139764E+01   9.6327239323E+00  -2.1158293333E+01   2.8043197447E+01   1.0000000000E+00     0.000  -1.
3000022   2   4   0   0   0   2.0013920439E+01   6.1491906719E-01   -2.2421413487E+01   3.0061893147E+01   2.5000000000E-01   1.033793E+00   0.
3000001    1    5    0    0    0  -2.8326846753E+01  -1.1700549178E+01   4.7570126835E+01   5.6597085306E+01   1.0000000000E+00     0.000  -1.
3000022   2   5   0   0   0   -7.3382134509E+00   1.4529061786E+00   7.8673268454E+00   1.0858989120E+01   2.5000000000E-01   1.016486E+00   0.
13    1    7    0    0    0   1.0906899973E+01   3.5566007154E-01  -1.2123894859E+01   1.6312167626E+01   1.0500000000E-01     0.000   1.
-13    1    7    0    0    0   9.1070204668E+00   2.5925899565E-01  -1.0297518628E+01   1.3749725521E+01   1.0500000000E-01     0.000  -1.
13    1    9    0    0    0  -4.0941363818E+00   8.7310444618E-01   4.4377041970E+00   6.1015168300E+00   1.0500000000E-01     0.000  -1.
-13    1    9    0    0    0  -3.2440770692E+00   5.7980173238E-01   3.4296226484E+00   4.7574722900E+00   1.0500000000E-01     0.000   1.
</event>
<event>
 13   1  9.2978750E-05  1.2500000E+02  7.5467720E-03  1.2380620E-01
   21   -1    0    0  502  501   0.0000000000E+00   0.0000000000E+00   1.3101544447E+03   1.3101544447E+03   0.0000000000E+00     0.000   1.
   21   -1    0    0  501  502   0.0000000000E+00   0.0000000000E+00  -2.9815187176E+00   2.9815187176E+00   0.0000000000E+00     0.000   1.
   25    2    1    2    0    0   0.0000000000E+00   0.0000000000E+00   1.3071729260E+03   1.3131359635E+03   1.2500000000E+02  3.036E-08  -1.
3000002    2    3    0    0    0  -5.5602576751E+01   1.7355368959E+00   9.3381672292E+02   9.3552569747E+02   1.0000000000E+01  1.688E-11  -1.
3000002    2    3    0    0    0   5.5602576751E+01  -1.7355368959E+00   3.7335620308E+02   3.7761026603E+02   1.0000000000E+01  2.184E-09  -1.
3000001    1    4    0    0    0  -1.4692041577E+01   1.5416372325E+00   1.8463582878E+02   1.8522856691E+02   1.0000000000E+00     0.000   1.
3000022   2   4   0   0   0   -4.0910535174E+01   1.9389966335E-01   7.4918089414E+02   7.5029713056E+02   2.5000000000E-01   1.173422E+01   0.
3000001    1    5    0    0    0   4.2243196554E+01   1.6726336337E+00   2.5967519473E+02   2.6309597511E+02   1.0000000000E+00     0.000  -1.
3000022   2   5   0   0   0   1.3359380198E+01   -3.4081705296E+00   1.1368100835E+02   1.1451429092E+02   2.5000000000E-01   2.983398E+00   0.
13    1    7    0    0    0  -2.2515978728E+01   6.3146775011E-02   4.1139751692E+02   4.1201322945E+02   1.0500000000E-01     0.000   1.
-13    1    7    0    0    0  -1.8394556446E+01   1.3075288834E-01   3.3778337722E+02   3.3828390111E+02   1.0500000000E-01     0.000  -1.
13    1    9    0    0    0   9.1248528664E+00  -2.3092198283E+00   7.7991051344E+01   7.8557052839E+01   1.0500000000E-01     0.000  -1.
-13    1    9    0    0    0   4.2345273313E+00  -1.0989507013E+00   3.5689957005E+01   3.5957238081E+01   1.0500000000E-01     0.000   1.
</event>
<event>
 13   1  9.2978750E-05  1.2500000E+02  7.5467720E-03  1.2380620E-01
   21   -1    0    0  502  501   0.0000000000E+00   0.0000000000E+00   2.5464827549E+00   2.5464827549E+00   0.0000000000E+00     0.000   1.
   21   -1    0    0  501  502   0.0000000000E+00   0.0000000000E+00  -1.5339785798E+03   1.5339785798E+03   0.0000000000E+00     0.000   1.
   25    2    1    2    0    0   0.0000000000E+00   0.0000000000E+00  -1.5314320971E+03   1.5365250626E+03   1.2500000000E+02  1.565E-08  -1.
3000002    2    3    0    0    0   1.3624358528E+00   4.8911168477E+01  -1.2276299511E+03   1.2286453742E+03   1.0000000000E+01  1.270E-10  -1.
3000002    2    3    0    0    0  -1.3624358528E+00  -4.8911168477E+01  -3.0380214601E+02   3.0787968844E+02   1.0000000000E+01  1.252E-09  -1.
3000001    1    4    0    0    0   1.2067359763E+00   7.7719615268E-01  -5.5265155955E+01   5.5292835959E+01   1.0000000000E+00     0.000  -1.
3000022   2   4   0   0   0   1.5569987648E-01   4.8133972324E+01   -1.1723647951E+03   1.1733525382E+03   2.5000000000E-01   1.632079E+01   0.
3000001    1    5    0    0    0  -1.1153298530E+00  -1.6208817635E+00  -2.4788565104E+01   2.4886626495E+01   1.0000000000E+00     0.000   1.
3000022   2   5   0   0   0   -2.4710599985E-01   -4.7290286713E+01   -2.7901358091E+02   2.8299306195E+02   2.5000000000E-01   7.001382E+00   0.
13    1    7    0    0    0   5.5010854675E-03   1.9474898829E+01  -4.7499127678E+02   4.7539036145E+02   1.0500000000E-01     0.000  -1.
-13    1    7    0    0    0   1.5019879101E-01   2.8659073495E+01  -6.9737351835E+02   6.9796217675E+02   1.0500000000E-01     0.000   1.
13    1    9    0    0    0  -8.1009046971E-02  -1.1456276916E+01  -6.7600820410E+01   6.8564821799E+01   1.0500000000E-01     0.000   1.
-13    1    9    0    0    0  -1.6609695288E-01  -3.5834009797E+01  -2.1141276050E+02   2.1442824015E+02   1.0500000000E-01     0.000  -1.
</event>
<event>
 13   1  9.2978750E-05  1.2500000E+02  7.5467720E-03  1.2380620E-01
   21   -1    0    0  502  501   0.0000000000E+00   0.0000000000E+00   1.9319564641E+02   1.9319564641E+02   0.0000000000E+00     0.000  -1.
   21   -1    0    0  501  502   0.0000000000E+00   0.0000000000E+00  -2.0219140921E+01   2.0219140921E+01   0.0000000000E+00     0.000  -1.
   25    2    1    2    0    0   0.0000000000E+00   0.0000000000E+00   1.7297650549E+02   2.1341478733E+02   1.2500000000E+02  5.091E-09  -1.
3000002    2    3    0    0    0   2.8885519147E+01  -1.4869148968E+01  -3.0570551236E+00   3.4129318678E+01   1.0000000000E+01  1.515E-09  -1.
3000002    2    3    0    0    0  -2.8885519147E+01   1.4869148968E+01   1.7603356061E+02   1.7928546865E+02   1.0000000000E+01  9.217E-11  -1.
3000001    1    4    0    0    0   1.8010303740E+01  -1.3818943451E+01   2.0596745354E-01   2.2723922670E+01   1.0000000000E+00     0.000   1.
3000022   2   4   0   0   0   1.0875215407E+01   -1.0502055168E+00   -3.2630225771E+00   1.1405396008E+01   2.5000000000E-01   1.808804E+01   0.
3000001    1    5    0    0    0  -2.8096962968E+00   4.6862201262E+00   1.9837465196E+01   2.0600487318E+01   1.0000000000E+00     0.000  -1.
3000022   2   5   0   0   0   -2.6075822850E+01   1.0182928841E+01   1.5619609542E+02   1.5868498133E+02   2.5000000000E-01   5.391669E+00   0.
13    1    7    0    0    0   3.9300718152E+00  -4.3272298067E-01  -1.2065887324E+00   4.1351656581E+00   1.0500000000E-01     0.000  -1.
-13    1    7    0    0    0   6.9451435915E+00  -6.1748253618E-01  -2.0564338447E+00   7.2702303503E+00   1.0500000000E-01     0.000   1.
13    1    9    0    0    0  -1.1167166159E+01   4.4046713514E+00   6.7272105352E+01   6.8334866014E+01   1.0500000000E-01     0.000  -1.
-13    1    9    0    0    0  -1.4908656691E+01   5.7782574899E+00   8.8923990067E+01   9.0350115320E+01   1.0500000000E-01     0.000   1.
</event>
<event>
 13   1  9.2978750E-05  1.2500000E+02  7.5467720E-03  1.2380620E-01
   21   -1    0    0  502  501   0.0000000000E+00   0.0000000000E+00   5.5120828849E+00   5.5120828849E+00   0.0000000000E+00     0.000  -1.
   21   -1    0    0  501  502   0.0000000000E+00   0.0000000000E+00  -7.0867040311E+02   7.0867040311E+02   0.0000000000E+00     0.000  -1.
   25    2    1    2    0    0   0.0000000000E+00   0.0000000000E+00  -7.0315832022E+02   7.1418248599E+02   1.2500000000E+02  3.409E-08  -1.
3000002    2    3    0    0    0   4.9403993126E+01  -3.1328169119E+01  -4.6354566938E+02   4.6732943019E+02   1.0000000000E+01  1.969E-11  -1.
3000002    2    3    0    0    0  -4.9403993126E+01   3.1328169119E+01  -2.3961265084E+02   2.4685305580E+02   1.0000000000E+01  1.903E-11  -1.
3000001    1    4    0    0    0   3.7914284531E+01  -2.2718279020E+01  -3.7940277023E+02   3.8196999258E+02   1.0000000000E+00     0.000  -1.
3000022   2   4   0   0   0   1.1489708595E+01   -8.6098900995E+00   -8.4142899148E+01   8.5359437604E+01   2.5000000000E-01   6.973386E+00   0.
3000001    1    5    0    0    0  -3.7367053990E+01   2.0020957551E+01  -1.5839058994E+02   1.6396863861E+02   1.0000000000E+00     0.000  -1.
3000022   2   5   0   0   0   -1.2036939136E+01   1.1307211569E+01   -8.1222060895E+01   8.2884417192E+01   2.5000000000E-01   2.042192E+00   0.
13    1    7    0    0    0   6.0745137586E+00  -4.4681007322E+00  -4.4146166893E+01   4.4785697693E+01   1.0500000000E-01     0.000   1.
-13    1    7    0    0    0   5.4151948363E+00  -4.1417893673E+00  -3.9996732255E+01   4.0573739911E+01   1.0500000000E-01     0.000  -1.
13    1    9    0    0    0  -7.4534328883E+00   6.9180407539E+00  -5.0047837863E+01   5.1070637841E+01   1.0500000000E-01     0.000  -1.
-13    1    9    0    0    0  -4.5835062479E+00   4.3891708146E+00  -3.1174223032E+01   3.1813779351E+01   1.0500000000E-01     0.000   1.
</event>
<event>
 13   1  9.2978750E-05  1.2500000E+02  7.5467720E-03  1.2380620E-01
   21   -1    0    0  502  501   0.0000000000E+00   0.0000000000E+00   6.5374199357E+00   6.5374199357E+00   0.0000000000E+00     0.000  -1.
   21   -1    0    0  501  502   0.0000000000E+00   0.0000000000E+00  -5.9752165815E+02   5.9752165815E+02   0.0000000000E+00     0.000  -1.
   25    2    1    2    0    0   0.0000000000E+00   0.0000000000E+00  -5.9098423821E+02   6.0405907808E+02   1.2500000000E+02  2.401E-09  -1.
3000002    2    3    0    0    0   4.5284647113E+01   4.1045951362E+01  -3.3614829813E+02   3.4180571634E+02   1.0000000000E+01  1.347E-10   1.
3000002    2    3    0    0    0  -4.5284647113E+01  -4.1045951362E+01  -2.5483594008E+02   2.6225336174E+02   1.0000000000E+01  3.755E-10   1.
3000001    1    4    0    0    0   1.2058335697E+01   1.1930298141E+01  -7.1214218578E+01   7.3213389494E+01   1.0000000000E+00     0.000   1.
3000022   2   4   0   0   0   3.3226311415E+01   2.9115653221E+01   -2.6493407955E+02   2.6859232684E+02   2.5000000000E-01   3.285960E+00   0.
3000001    1    5    0    0    0  -1.0917228343E+01  -1.0158677540E+01  -8.1777698390E+01   8.3132283489E+01   1.0000000000E+00     0.000   1.
3000022   2   5   0   0   0   -3.4367418769E+01   -3.0887273821E+01   -1.7305824169E+02   1.7912107825E+02   2.5000000000E-01   3.144578E+00   0.
13    1    7    0    0    0   2.2959231896E+01   2.0130830466E+01  -1.8282690080E+02   1.8535928179E+02   1.0500000000E-01     0.000  -1.
-13    1    7    0    0    0   1.0267079519E+01   8.9848227547E+00  -8.2107178752E+01   8.3233045057E+01   1.0500000000E-01     0.000   1.
13    1    9    0    0    0  -1.5323856540E+01  -1.3683878427E+01  -7.6982108047E+01   7.9676377255E+01   1.0500000000E-01     0.000  -1.
-13    1    9    0    0    0  -1.9043562229E+01  -1.7203395394E+01  -9.6076133646E+01   9.9444700999E+01   1.0500000000E-01     0.000   1.
</event>
<event>
 13   1  9.2978750E-05  1.2500000E+02  7.5467720E-03  1.2380620E-01
   21   -1    0    0  502  501   0.0000000000E+00   0.0000000000E+00   2.2417939485E+01   2.2417939485E+01   0.0000000000E+00     0.000   1.
   21   -1    0    0  501  502   0.0000000000E+00   0.0000000000E+00  -1.7424661185E+02   1.7424661185E+02   0.0000000000E+00     0.000   1.
   25    2    1    2    0    0   0.0000000000E+00   0.0000000000E+00  -1.5182867237E+02   1.9666455134E+02   1.2500000000E+02  2.193E-08  -1.
3000002    2    3    0    0    0  -3.7163114923E+01  -3.3584784785E+01  -1.9248399279E+01   5.4585123932E+01   1.0000000000E+01  2.741E-10   1.
3000002    2    3    0    0    0   3.7163114923E+01   3.3584784785E+01  -1.3258027309E+02   1.4207942741E+02   1.0000000000E+01  5.950E-10   1.
3000001    1    4    0    0    0  -1.3359500347E+00  -4.1555041716E+00  -3.2662823441E+00   5.5427049143E+00   1.0000000000E+00     0.000  -1.
3000022   2   4   0   0   0   -3.5827164888E+01   -2.9429280613E+01   -1.5982116935E+01   4.9042419017E+01   2.5000000000E-01   1.414694E+00   0.
3000001    1    5    0    0    0   3.2644267630E+01   3.2169444684E+01  -1.2496886209E+02   1.3311174957E+02   1.0000000000E+00     0.000   1.
3000022   2   5   0   0   0   4.5188472935E+00   1.4153401006E+00   -7.6114109988E+00   8.9676778407E+00   2.5000000000E-01   4.965054E+00   0.
13    1    7    0    0    0  -1.3021958492E+01  -1.0625220517E+01  -5.7727788641E+00   1.7770838889E+01   1.0500000000E-01     0.000   1.
-13    1    7    0    0    0  -2.2805206397E+01  -1.8804060096E+01  -1.0209338071E+01   3.1271580129E+01   1.0500000000E-01     0.000  -1.
13    1    9    0    0    0   1.3835250709E+00   4.2287238224E-01  -2.4169992624E+00   2.8188425121E+00   1.0500000000E-01     0.000  -1.
-13    1    9    0    0    0   3.1353222225E+00   9.9246771837E-01  -5.1944117364E+00   6.1488353286E+00   1.0500000000E-01     0.000   1.
</event>
<event>
 13   1  9.2978750E-05  1.2500000E+02  7.5467720E-03  1.2380620E-01
   21   -1    0    0  502  501   0.0000000000E+00   0.0000000000E+00   3.1682325630E+02   3.1682325630E+02   0.0000000000E+00     0.000   1.
   21   -1    0    0  501  502   0.0000000000E+00   0.0000000000E+00  -1.2329429492E+01   1.2329429492E+01   0.0000000000E+00     0.000   1.
   25    2    1    2    0    0   0.0000000000E+00   0.0000000000E+00   3.0449382681E+02   3.2915268580E+02   1.2500000000E+02  3.337E-08  -1.
3000002    2    3    0    0    0   2.7922565885E+01  -1.7962407464E+01   1.5321111950E+01   3.7908498241E+01   1.0000000000E+01  5.966E-10  -1.
3000002    2    3    0    0    0  -2.7922565885E+01   1.7962407464E+01   2.8917271486E+02   2.9124418756E+02   1.0000000000E+01  5.468E-11  -1.
3000001    1    4    0    0    0   2.0305006142E+01  -1.4029170185E+01   1.5794805506E+01   2.9318710263E+01   1.0000000000E+00     0.000   1.
3000022   2   4   0   0   0   7.6175597433E+00   -3.9332372782E+00   -4.7369355514E-01   8.5897879784E+00   2.5000000000E-01   6.609578E+00   0.
3000001    1    5    0    0    0  -2.2510199306E+01   9.4708471388E+00   1.9152208489E+02   1.9307541278E+02   1.0000000000E+00     0.000   1.
3000022   2   5   0   0   0   -5.4123665796E+00   8.4915603248E+00   9.7650629970E+01   9.8168774783E+01   2.5000000000E-01   4.571794E+00   0.
13    1    7    0    0    0   4.2685428992E+00  -2.2765858292E+00  -2.8083444101E-01   4.8469778732E+00   1.0500000000E-01     0.000  -1.
-13    1    7    0    0    0   3.3490168442E+00  -1.6566514490E+00  -1.9285911412E-01   3.7428101052E+00   1.0500000000E-01     0.000   1.
13    1    9    0    0    0  -3.5346376273E+00   5.6256708267E+00   6.4748604214E+01   6.5088667278E+01   1.0500000000E-01     0.000   1.
-13    1    9    0    0    0  -1.8777289523E+00   2.8658894981E+00   3.2902025757E+01   3.3080107505E+01   1.0500000000E-01     0.000  -1.
</event>
<event>
 13   1  9.2978750E-05  1.2500000E+02  7.5467720E-03  1.2380620E-01
   21   -1    0    0  502  501   0.0000000000E+00   0.0000000000E+00   3.0125399261E+02   3.0125399261E+02   0.0000000000E+00     0.000   1.
   21   -1    0    0  501  502   0.0000000000E+00   0.0000000000E+00  -1.2966633126E+01   1.2966633126E+01   0.0000000000E+00     0.000   1.
   25    2    1    2    0    0   0.0000000000E+00   0.0000000000E+00   2.8828735949E+02   3.1422062574E+02   1.2500000000E+02  8.062E-08  -1.
3000002    2    3    0    0    0   4.6826759006E+01  -3.6866476481E+01   1.0405188190E+02   1.2032737251E+02   1.0000000000E+01  4.655E-10  -1.
3000002    2    3    0    0    0  -4.6826759006E+01   3.6866476481E+01   1.8423547759E+02   1.9389325323E+02   1.0000000000E+01  9.954E-10  -1.
3000001    1    4    0    0    0   3.1521845384E+00  -5.2836700429E+00   7.5165388511E+00   9.7648242579E+00   1.0000000000E+00     0.000   1.
3000022   2   4   0   0   0   4.3674574468E+01   -3.1582806438E+01   9.6535343050E+01   1.1056254825E+02   2.5000000000E-01   7.990414E-01   0.
3000001    1    5    0    0    0  -2.3920697392E+01   1.9939058626E+01   8.0525570915E+01   8.6343114339E+01   1.0000000000E+00     0.000  -1.
3000022   2   5   0   0   0   -2.2906061614E+01   1.6927417854E+01   1.0370990667E+02   1.0755013889E+02   2.5000000000E-01   5.921913E+00   0.
13    1    7    0    0    0   2.1096542775E+01  -1.5338392139E+01   4.6696811463E+01   5.3487695933E+01   1.0500000000E-01     0.000  -1.
-13    1    7    0    0    0   2.2578031692E+01  -1.6244414299E+01   4.9838531587E+01   5.7074852315E+01   1.0500000000E-01     0.000   1.
13    1    9    0    0    0  -7.1351631600E+00   5.3134765521E+00   3.2532500359E+01   3.3727113588E+01   1.0500000000E-01     0.000   1.
-13    1    9    0    0    0  -1.5770898454E+01   1.1613941302E+01   7.1177406315E+01   7.3823025306E+01   1.0500000000E-01     0.000  -1.
</event>
<event>
 13   1  9.2978750E-05  1.2500000E+02  7.5467720E-03  1.2380620E-01
   21   -1    0    0  502  501   0.0000000000E+00   0.0000000000E+00   2.9566741124E+01   2.9566741124E+01   0.0000000000E+00     0.000  -1.
   21   -1    0    0  501  502   0.0000000000E+00   0.0000000000E+00  -1.3211635275E+02   1.3211635275E+02   0.0000000000E+00     0.000  -1.
   25    2    1    2    0    0   0.0000000000E+00   0.0000000000E+00  -1.0254961162E+02   1.6168309387E+02   1.2500000000E+02  6.744E-08  -1.
3000002    2    3    0    0    0   3.4335692900E+01   4.8449521158E+01  -2.9632775129E+01   6.7114806632E+01   1.0000000000E+01  6.402E-10   1.
3000002    2    3    0    0    0  -3.4335692900E+01  -4.8449521158E+01  -7.2916836491E+01   9.4568287238E+01   1.0000000000E+01  1.238E-10   1.
3000001    1    4    0    0    0   3.3651068723E+01   4.2869783805E+01  -2.5799683277E+01   6.0306189126E+01   1.0000000000E+00     0.000   1.
3000022   2   4   0   0   0   6.8462417656E-01   5.5797373530E+00   -3.8330918523E+00   6.8086175057E+00   2.5000000000E-01   7.639790E+00   -1.
3000001    1    5    0    0    0  -2.3345721544E+00  -1.1000674238E+00  -1.6699349965E+00   3.2325003285E+00   1.0000000000E+00     0.000  -1.
3000022   2   5   0   0   0   -3.2001120745E+01   -4.7349453734E+01   -7.1246901494E+01   9.1335786910E+01   2.5000000000E-01   4.510623E-01   0.
13    1    7    0    0    0   3.2250776677E-01   2.9421684559E+00  -1.9504421035E+00   3.5462114829E+00   1.0500000000E-01     0.000  -1.
-13    1    7    0    0    0   3.6211640978E-01   2.6375688971E+00  -1.8826497488E+00   3.2624060228E+00   1.0500000000E-01     0.000  -1.
13    1    9    0    0    0  -9.0683919037E+00  -1.3489352718E+01  -2.0248987052E+01   2.5965955983E+01   1.0500000000E-01     0.000   1.
-13    1    9    0    0    0  -2.2932728842E+01  -3.3860101017E+01  -5.0997914442E+01   6.5369830927E+01   1.0500000000E-01     0.000  -1.
</event>
<event>
 13   1  9.2978750E-05  1.2500000E+02  7.5467720E-03  1.2380620E-01
   21   -1    0    0  502  501   0.0000000000E+00   0.0000000000E+00   6.6735867404E+01   6.6735867404E+01   0.0000000000E+00     0.000   1.
   21   -1    0    0  501  502   0.0000000000E+00   0.0000000000E+00  -5.8532992106E+01   5.8532992106E+01   0.0000000000E+00     0.000   1.
   25    2    1    2    0    0   0.0000000000E+00   0.0000000000E+00   8.2028752979E+00   1.2526885951E+02   1.2500000000E+02  1.360E-08  -1.
3000002    2    3    0    0    0  -2.4968238017E+01   1.3782966424E+01  -5.0723331794E+01   5.9044385519E+01   1.0000000000E+01  6.709E-11  -1.
3000002    2    3    0    0    0   2.4968238017E+01  -1.3782966424E+01   5.8926207092E+01   6.6224473991E+01   1.0000000000E+01  3.576E-10  -1.
3000001    1    4    0    0    0  -1.8539431899E+01   1.4692801089E+01  -4.1120453044E+01   4.7449769205E+01   1.0000000000E+00     0.000   1.
3000022   2   4   0   0   0   -6.4288061173E+00   -9.0983466515E-01   -9.6028787496E+00   1.1594616315E+01   2.5000000000E-01   2.036964E+00   0.
3000001    1    5    0    0    0   5.9209157890E+00   9.1273778076E-01   9.9334239962E+00   1.1643163072E+01   1.0000000000E+00     0.000   1.
3000022   2   5   0   0   0   1.9047322228E+01   -1.4695704205E+01   4.8992783096E+01   5.4581310918E+01   2.5000000000E-01   4.916596E-01   0.
13    1    7    0    0    0  -1.8884139817E+00  -2.4286702444E-01  -2.8841812501E+00   3.4575451178E+00   1.0500000000E-01     0.000  -1.
-13    1    7    0    0    0  -4.5403921356E+00  -6.6696764070E-01  -6.7186974994E+00   8.1370711971E+00   1.0500000000E-01     0.000   1.
13    1    9    0    0    0   7.6585647876E+00  -5.9575763252E+00   1.9874247960E+01   2.2116579465E+01   1.0500000000E-01     0.000  -1.
-13    1    9    0    0    0   1.1388757440E+01  -8.7381278795E+00   2.9118535135E+01   3.2464731453E+01   1.0500000000E-01     0.000   1.
</event>
<event>
 13   1  9.2978750E-05  1.2500000E+02  7.5467720E-03  1.2380620E-01
   21   -1    0    0  502  501   0.0000000000E+00   0.0000000000E+00   1.0035734212E+01   1.0035734212E+01   0.0000000000E+00     0.000   1.
   21   -1    0    0  501  502   0.0000000000E+00   0.0000000000E+00  -3.8923410260E+02   3.8923410260E+02   0.0000000000E+00     0.000   1.
   25    2    1    2    0    0   0.0000000000E+00   0.0000000000E+00  -3.7919836839E+02   3.9926983682E+02   1.2500000000E+02  5.900E-08  -1.
3000002    2    3    0    0    0  -1.2219565414E+00  -3.6317991137E+01  -3.0346736253E+01   4.8388160321E+01   1.0000000000E+01  3.114E-10  -1.
3000002    2    3    0    0    0   1.2219565414E+00   3.6317991137E+01  -3.4885163214E+02   3.5088167650E+02   1.0000000000E+01  2.016E-10  -1.
3000001    1    4    0    0    0  -4.1061011366E+00  -2.4173375250E+01  -1.5655611115E+01   2.9108594898E+01   1.0000000000E+00     0.000  -1.
3000022   2   4   0   0   0   2.8841445952E+00   -1.2144615887E+01   -1.4691125138E+01   1.9279565423E+01   2.5000000000E-01   2.194376E+00   0.
3000001    1    5    0    0    0   5.1459692244E+00   1.6202572385E+01  -1.4218452499E+02   1.4320071054E+02   1.0000000000E+00     0.000   1.
3000022   2   5   0   0   0   -3.9240126830E+00   2.0115418752E+01   -2.0666710715E+02   2.0768096596E+02   2.5000000000E-01   7.318630E+00   0.
13    1    7    0    0    0   1.4529986198E+00  -6.4000776499E+00  -7.7513437006E+00   1.0157093732E+01   1.0500000000E-01     0.000  -1.
-13    1    7    0    0    0   1.4311459754E+00  -5.7445382373E+00  -6.9397814375E+00   9.1224716916E+00   1.0500000000E-01     0.000   1.
13    1    9    0    0    0  -1.0867622191E+00   5.7362776136E+00  -5.8609943125E+01   5.8900105188E+01   1.0500000000E-01     0.000  -1.
-13    1    9    0    0    0  -2.8372504640E+00   1.4379141139E+01  -1.4805716402E+02   1.4878086078E+02   1.0500000000E-01     0.000   1.
</event>
<event>
 13   1  9.2978750E-05  1.2500000E+02  7.5467720E-03  1.2380620E-01
   21   -1    0    0  502  501   0.0000000000E+00   0.0000000000E+00   3.1827179407E+02   3.1827179407E+02   0.0000000000E+00     0.000  -1.
   21   -1    0    0  501  502   0.0000000000E+00   0.0000000000E+00  -1.2273315050E+01   1.2273315050E+01   0.0000000000E+00     0.000  -1.
   25    2    1    2    0    0   0.0000000000E+00   0.0000000000E+00   3.0599847902E+02   3.3054510912E+02   1.2500000000E+02  3.816E-09  -1.
3000002    2    3    0    0    0   3.5860607920E+01  -3.3258551531E+01   5.3558065590E+01   7.3215987598E+01   1.0000000000E+01  1.073E-10   1.
3000002    2    3    0    0    0  -3.5860607920E+01   3.3258551531E+01   2.5244041343E+02   2.5732912152E+02   1.0000000000E+01  9.008E-10   1.
3000001    1    4    0    0    0   3.5627180256E+01  -3.3838791080E+01   5.3285614319E+01   7.2489423009E+01   1.0000000000E+00     0.000   1.
3000022   2   4   0   0   0   2.3342766303E-01   5.8023954907E-01   2.7245127099E-01   7.2656458986E-01   2.5000000000E-01   2.746744E+00   0.
3000001    1    5    0    0    0  -2.3317801815E+01   1.5431942912E+01   1.3215034077E+02   1.3507989232E+02   1.0000000000E+00     0.000   1.
3000022   2   5   0   0   0   -1.2542806104E+01   1.7826608619E+01   1.2029007266E+02   1.2224922920E+02   2.5000000000E-01   1.476502E+00   0.
13    1    7    0    0    0   4.1383762678E-02   2.8085943974E-01   1.2369642847E-01   3.2698692194E-01   1.0500000000E-01     0.000   1.
-13    1    7    0    0    0   1.9204390035E-01   2.9938010933E-01   1.4875484252E-01   3.9957766792E-01   1.0500000000E-01     0.000  -1.
13    1    9    0    0    0  -6.9277148971E+00   9.7307120218E+00   6.5879061752E+01   6.6953280670E+01   1.0500000000E-01     0.000  -1.
-13    1    9    0    0    0  -5.6150912073E+00   8.0958965969E+00   5.4411010910E+01   5.5295948534E+01   1.0500000000E-01     0.000   1.
</event>
<event>
 13   1  9.2978750E-05  1.2500000E+02  7.5467720E-03  1.2380620E-01
   21   -1    0    0  502  501   0.0000000000E+00   0.0000000000E+00   1.5721092950E+01   1.5721092950E+01   0.0000000000E+00     0.000  -1.
   21   -1    0    0  501  502   0.0000000000E+00   0.0000000000E+00  -2.4847191047E+02   2.4847191047E+02   0.0000000000E+00     0.000  -1.
   25    2    1    2    0    0   0.0000000000E+00   0.0000000000E+00  -2.3275081752E+02   2.6419300342E+02   1.2500000000E+02  1.846E-08  -1.
3000002    2    3    0    0    0   6.1635309994E+00   2.2871168960E+01   4.0255817699E+00   2.6024695821E+01   1.0000000000E+01  8.165E-11   1.
3000002    2    3    0    0    0  -6.1635309994E+00  -2.2871168960E+01  -2.3677639929E+02   2.3816830760E+02   1.0000000000E+01  1.297E-09   1.
3000001    1    4    0    0    0  -5.5881701369E-01   2.4158387793E+00   3.6040430632E+00   4.4875026310E+00   1.0000000000E+00     0.000  -1.
3000022   2   4   0   0   0   6.7223480131E+00   2.0455330181E+01   4.2153870676E-01   2.1537193190E+01   2.5000000000E-01   1.007919E+00   0.
3000001    1    5    0    0    0  -5.9242224785E+00  -2.1340441019E+01  -2.3333616768E+02   2.3438702605E+02   1.0000000000E+00     0.000   1.
3000022   2   5   0   0   0   -2.3930852089E-01   -1.5307279405E+00   -3.4402316133E+00   3.7812815485E+00   2.5000000000E-01   1.756214E+00   0.
13    1    7    0    0    0   3.8272828922E+00   1.1853912166E+01   2.4318037172E-01   1.2459273240E+01   1.0500000000E-01     0.000   1.
-13    1    7    0    0    0   2.8950651209E+00   8.6014180148E+00   1.7835833504E-01   9.0779199498E+00   1.0500000000E-01     0.000  -1.
13    1    9    0    0    0  -1.8784314553E-01  -1.0153218219E+00  -2.1672009381E+00   2.4029041502E+00   1.0500000000E-01     0.000   1.
-13    1    9    0    0    0  -5.1465375360E-02  -5.1540611858E-01  -1.2730306753E+00   1.3783773983E+00   1.0500000000E-01     0.000  -1.
</event>
<event>
 13   1  9.2978750E-05  1.2500000E+02  7.5467720E-03  1.2380620E-01
   21   -1    0    0  502  501   0.0000000000E+00   0.0000000000E+00   2.4849348125E+01   2.4849348125E+01   0.0000000000E+00     0.000  -1.
   21   -1    0    0  501  502   0.0000000000E+00   0.0000000000E+00  -1.5719728261E+02   1.5719728261E+02   0.0000000000E+00     0.000  -1.
   25    2    1    2    0    0   0.0000000000E+00   0.0000000000E+00  -1.3234793449E+02   1.8204663074E+02   1.2500000000E+02  5.716E-09  -1.
3000002    2    3    0    0    0   1.6780851875E+01   3.9007981996E+01  -1.3135427363E+02   1.3840941026E+02   1.0000000000E+01  7.436E-10   1.
3000002    2    3    0    0    0  -1.6780851875E+01  -3.9007981996E+01  -9.9366086223E-01   4.3637220477E+01   1.0000000000E+01  7.477E-10   1.
3000001    1    4    0    0    0   4.5603744033E+00   6.9559549953E+00  -1.5970757957E+01   1.8034617665E+01   1.0000000000E+00     0.000   1.
3000022   2   4   0   0   0   1.2220477472E+01   3.2052027001E+01   -1.1538351567E+02   1.2037479260E+02   2.5000000000E-01   1.982022E+01   0.
3000001    1    5    0    0    0  -4.2151237252E-01  -7.1914635373E+00  -2.8521784524E+00   7.8121535068E+00   1.0000000000E+00     0.000  -1.
3000022   2   5   0   0   0   -1.6359339503E+01   -3.1816518459E+01   1.8585175902E+00   3.5825066970E+01   2.5000000000E-01   1.010658E+00   0.
13    1    7    0    0    0   7.8401202198E+00   2.0580466714E+01  -7.3876854401E+01   7.7089712261E+01   1.0500000000E-01     0.000   1.
-13    1    7    0    0    0   4.3803572522E+00   1.1471560287E+01  -4.1506661269E+01   4.3285080337E+01   1.0500000000E-01     0.000  -1.
13    1    9    0    0    0  -4.8716364647E+00  -9.4377451007E+00   5.9349534752E-01   1.0638004332E+01   1.0500000000E-01     0.000   1.
-13    1    9    0    0    0  -1.1487703038E+01  -2.2378773358E+01   1.2650222427E+00   2.5187062639E+01   1.0500000000E-01     0.000  -1.
</event>
<event>
 13   1  9.2978750E-05  1.2500000E+02  7.5467720E-03  1.2380620E-01
   21   -1    0    0  502  501   0.0000000000E+00   0.0000000000E+00   4.6188796859E+02   4.6188796859E+02   0.0000000000E+00     0.000  -1.
   21   -1    0    0  501  502   0.0000000000E+00   0.0000000000E+00  -8.4571373703E+00   8.4571373703E+00   0.0000000000E+00     0.000  -1.
   25    2    1    2    0    0   0.0000000000E+00   0.0000000000E+00   4.5343083122E+02   4.7034510596E+02   1.2500000000E+02  2.636E-08  -1.
3000002    2    3    0    0    0   4.5115029902E+01  -1.4291752307E+01   3.7564803265E+02   3.7874934263E+02   1.0000000000E+01  2.424E-09   1.
3000002    2    3    0    0    0  -4.5115029902E+01   1.4291752307E+01   7.7782798573E+01   9.1595763335E+01   1.0000000000E+01  2.123E-09   1.
3000001    1    4    0    0    0   3.3946944093E+01  -6.2768632821E+00   2.7848254339E+02   2.8061596712E+02   1.0000000000E+00     0.000   1.
3000022   2   4   0   0   0   1.1168085809E+01   -8.0148890254E+00   9.7165489255E+01   9.8133375510E+01   2.5000000000E-01   1.617791E+00   0.
3000001    1    5    0    0    0  -3.4736820100E+01   1.4076391872E+01   5.5070131071E+01   6.6622149582E+01   1.0000000000E+00     0.000   1.
3000022   2   5   0   0   0   -1.0378209803E+01   2.1536043503E-01   2.2712667502E+01   2.4973613753E+01   2.5000000000E-01   3.545758E+00   0.
13    1    7    0    0    0   3.1759016956E+00  -2.2727343503E+00   2.7902252505E+01   2.8174427995E+01   1.0500000000E-01     0.000   1.
-13    1    7    0    0    0   7.9921841134E+00  -5.7421546750E+00   6.9263236751E+01   6.9958947515E+01   1.0500000000E-01     0.000  -1.
13    1    9    0    0    0  -4.0112163945E+00   1.2266623483E-01   8.6679164531E+00   9.5524187830E+00   1.0500000000E-01     0.000   1.
-13    1    9    0    0    0  -6.3669934083E+00   9.2694200194E-02   1.4044751049E+01   1.5421194970E+01   1.0500000000E-01     0.000  -1.
</event>
<event>
 13   1  9.2978750E-05  1.2500000E+02  7.5467720E-03  1.2380620E-01
   21   -1    0    0  502  501   0.0000000000E+00   0.0000000000E+00   8.0716749003E+01   8.0716749003E+01   0.0000000000E+00     0.000  -1.
   21   -1    0    0  501  502   0.0000000000E+00   0.0000000000E+00  -4.8394540765E+01   4.8394540765E+01   0.0000000000E+00     0.000  -1.
   25    2    1    2    0    0   0.0000000000E+00   0.0000000000E+00   3.2322208238E+01   1.2911128977E+02   1.2500000000E+02  5.625E-08  -1.
3000002    2    3    0    0    0  -2.5766562564E+01   3.4707910624E+00   7.3950259257E+01   7.9022800388E+01   1.0000000000E+01  3.680E-11  -1.
3000002    2    3    0    0    0   2.5766562564E+01  -3.4707910624E+00  -4.1628051019E+01   5.0088489382E+01   1.0000000000E+01  3.761E-10  -1.
3000001    1    4    0    0    0   2.0532317855E-01  -9.8243666346E-01   2.5880310441E+00   2.9504650634E+00   1.0000000000E+00     0.000   1.
3000022   2   4   0   0   0   -2.5971885742E+01   4.4532277259E+00   7.1362228213E+01   7.6072335324E+01   2.5000000000E-01   4.512451E+00   0.
3000001    1    5    0    0    0   2.3558263390E+01  -3.1141465217E+00  -3.0201852956E+01   3.8442705478E+01   1.0000000000E+00     0.000  -1.
3000022   2   5   0   0   0   2.2082991742E+00   -3.5664454069E-01   -1.1426198063E+01   1.1645783904E+01   2.5000000000E-01   7.478844E+00   0.
13    1    7    0    0    0  -7.0997154477E+00   1.2543648847E+00   1.9502796802E+01   2.0793015625E+01   1.0500000000E-01     0.000   1.
-13    1    7    0    0    0  -1.8872170295E+01   3.1988628412E+00   5.1859431411E+01   5.5279319699E+01   1.0500000000E-01     0.000  -1.
13    1    9    0    0    0   1.0069816086E+00  -1.3542640155E-01  -5.5114307152E+00   5.6052873075E+00   1.0500000000E-01     0.000  -1.
-13    1    9    0    0    0   1.2013175656E+00  -2.2121813914E-01  -5.9147673474E+00   6.0404965965E+00   1.0500000000E-01     0.000   1.
</event>
<event>
 13   1  9.2978750E-05  1.2500000E+02  7.5467720E-03  1.2380620E-01
   21   -1    0    0  502  501   0.0000000000E+00   0.0000000000E+00   1.7504962318E+01   1.7504962318E+01   0.0000000000E+00     0.000   1.
   21   -1    0    0  501  502   0.0000000000E+00   0.0000000000E+00  -2.2315100879E+02   2.2315100879E+02   0.0000000000E+00     0.000   1.
   25    2    1    2    0    0   0.0000000000E+00   0.0000000000E+00  -2.0564604647E+02   2.4065597111E+02   1.2500000000E+02  2.997E-08  -1.
3000002    2    3    0    0    0   4.9231482802E+01  -1.6920762530E+00  -1.7433368110E+02   1.8143548272E+02   1.0000000000E+01  9.865E-10  -1.
3000002    2    3    0    0    0  -4.9231482802E+01   1.6920762530E+00  -3.1312365366E+01   5.9220488395E+01   1.0000000000E+01  2.634E-10  -1.
3000001    1    4    0    0    0   1.7894414823E+01   4.1274468883E+00  -6.3867241113E+01   6.6462548755E+01   1.0000000000E+00     0.000   1.
3000022   2   4   0   0   0   3.1337067978E+01   -5.8195231413E+00   -1.1046643999E+02   1.1497293396E+02   2.5000000000E-01   1.438440E+01   0.
3000001    1    5    0    0    0  -1.8930363438E+01  -3.8458705417E+00  -1.0117721598E+01   2.1829284698E+01   1.0000000000E+00     0.000  -1.
3000022   2   5   0   0   0   -3.0301119364E+01   5.5379467947E+00   -2.1194643768E+01   3.7391203696E+01   2.5000000000E-01   1.544221E+00   0.
13    1    7    0    0    0   2.3206667970E+01  -4.3048655043E+00  -8.1913172083E+01   8.5245880199E+01   1.0500000000E-01     0.000   1.
-13    1    7    0    0    0   8.1304000084E+00  -1.5146576370E+00  -2.8553267909E+01   2.9727053761E+01   1.0500000000E-01     0.000  -1.
13    1    9    0    0    0  -9.8806985951E+00   1.8453162891E+00  -6.9585101528E+00   1.2225599596E+01   1.0500000000E-01     0.000  -1.
-13    1    9    0    0    0  -2.0420420769E+01   3.6926305056E+00  -1.4236133615E+01   2.5165604101E+01   1.0500000000E-01     0.000   1.
</event>
<event>
 13   1  9.2978750E-05  1.2500000E+02  7.5467720E-03  1.2380620E-01
   21   -1    0    0  502  501   0.0000000000E+00   0.0000000000E+00   2.7362975329E+01   2.7362975329E+01   0.0000000000E+00     0.000  -1.
   21   -1    0    0  501  502   0.0000000000E+00   0.0000000000E+00  -1.4275677089E+02   1.4275677089E+02   0.0000000000E+00     0.000  -1.
   25    2    1    2    0    0   0.0000000000E+00   0.0000000000E+00  -1.1539379556E+02   1.7011974622E+02   1.2500000000E+02  4.262E-08  -1.
3000002    2    3    0    0    0  -9.0493606886E+00  -5.8092697278E+01  -8.3143449011E+01   1.0232050391E+02   1.0000000000E+01  3.086E-09  -1.
3000002    2    3    0    0    0   9.0493606886E+00   5.8092697278E+01  -3.2250346549E+01   6.7799242315E+01   1.0000000000E+01  7.731E-10  -1.
3000001    1    4    0    0    0  -4.2501338234E+00  -2.3080471355E+01  -2.5200442276E+01   3.4450458435E+01   1.0000000000E+00     0.000  -1.
3000022   2   4   0   0   0   -4.7992268652E+00   -3.5012225924E+01   -5.7943006735E+01   6.7870045470E+01   2.5000000000E-01   8.433383E+00   0.
3000001    1    5    0    0    0  -8.5181219858E-01   2.1933731701E+01  -9.4448068087E+00   2.3916909207E+01   1.0000000000E+00     0.000   1.
3000022   2   5   0   0   0   9.9011728872E+00   3.6158965577E+01   -2.2805539740E+01   4.3882333108E+01   2.5000000000E-01   4.492442E+00   0.
13    1    7    0    0    0  -1.6312919894E+00  -1.2317282208E+01  -2.0381830852E+01   2.3870622288E+01   1.0500000000E-01     0.000   1.
-13    1    7    0    0    0  -3.1679348758E+00  -2.2694943716E+01  -3.7561175883E+01   4.3999423182E+01   1.0500000000E-01     0.000  -1.
13    1    9    0    0    0   7.0431064133E+00   2.5818503850E+01  -1.6240765306E+01   3.1304535961E+01   1.0500000000E-01     0.000   1.
-13    1    9    0    0    0   2.8580664739E+00   1.0340461727E+01  -6.5647744344E+00   1.2577797147E+01   1.0500000000E-01     0.000  -1.
</event>
<event>
 13   1  9.2978750E-05  1.2500000E+02  7.5467720E-03  1.2380620E-01
   21   -1    0    0  502  501   0.0000000000E+00   0.0000000000E+00   2.4247026811E+01   2.4247026811E+01   0.0000000000E+00     0.000  -1.
   21   -1    0    0  501  502   0.0000000000E+00   0.0000000000E+00  -1.6110222629E+02   1.6110222629E+02   0.0000000000E+00     0.000  -1.
   25    2    1    2    0    0   0.0000000000E+00   0.0000000000E+00  -1.3685519948E+02   1.8534925310E+02   1.2500000000E+02  5.100E-08  -1.
3000002    2    3    0    0    0  -2.1943829611E+01  -5.6237643708E+01  -4.9552046932E+01   7.8737599550E+01   1.0000000000E+01  5.908E-10  -1.
3000002    2    3    0    0    0   2.1943829611E+01   5.6237643708E+01  -8.7303152548E+01   1.0661165355E+02   1.0000000000E+01  5.031E-11  -1.
3000001    1    4    0    0    0  -7.0104259692E+00  -3.1325241520E+01  -2.4833862950E+01   4.0597260715E+01   1.0000000000E+00     0.000   1.
3000022   2   4   0   0   0   -1.4933403642E+01   -2.4912402188E+01   -2.4718183982E+01   3.8140338835E+01   2.5000000000E-01   2.428253E+00   0.
3000001    1    5    0    0    0   2.4493314951E+00   8.8373143562E+00  -1.9910813537E+01   2.1943970596E+01   1.0000000000E+00     0.000   1.
3000022   2   5   0   0   0   1.9494498116E+01   4.7400329351E+01   -6.7392339011E+01   8.4667682954E+01   2.5000000000E-01   8.941288E+00   0.
13    1    7    0    0    0  -7.6680416395E+00  -1.2758796628E+01  -1.2754113833E+01   1.9602657948E+01   1.0500000000E-01     0.000   1.
-13    1    7    0    0    0  -7.2653620026E+00  -1.2153605560E+01  -1.1964070149E+01   1.8537680887E+01   1.0500000000E-01     0.000  -1.
13    1    9    0    0    0   1.2477818097E+01   3.0366177782E+01  -4.3073632007E+01   5.4158558851E+01   1.0500000000E-01     0.000   1.
-13    1    9    0    0    0   7.0166800197E+00   1.7034151569E+01  -2.4318707004E+01   3.0509124103E+01   1.0500000000E-01     0.000  -1.
</event>
<event>
 13   1  9.2978750E-05  1.2500000E+02  7.5467720E-03  1.2380620E-01
   21   -1    0    0  502  501   0.0000000000E+00   0.0000000000E+00   2.4289617788E+02   2.4289617788E+02   0.0000000000E+00     0.000  -1.
   21   -1    0    0  501  502   0.0000000000E+00   0.0000000000E+00  -1.6081973929E+01   1.6081973929E+01   0.0000000000E+00     0.000  -1.
   25    2    1    2    0    0   0.0000000000E+00   0.0000000000E+00   2.2681420395E+02   2.5897815181E+02   1.2500000000E+02  6.775E-08  -1.
3000002    2    3    0    0    0   2.4823169577E+01  -9.6263952453E+00   2.2871292874E+02   2.3047442593E+02   1.0000000000E+01  3.807E-11   1.
3000002    2    3    0    0    0  -2.4823169577E+01   9.6263952453E+00  -1.8987247926E+00   2.8503725881E+01   1.0000000000E+01  4.073E-10   1.
3000001    1    4    0    0    0  -5.5511071675E-01  -4.7299328576E-01   5.5380722436E+00   5.6746907169E+00   1.0000000000E+00     0.000  -1.
3000022   2   4   0   0   0   2.5378280294E+01   -9.1534019596E+00   2.2317485650E+02   2.2479973521E+02   2.5000000000E-01   7.135729E+00   0.
3000001    1    5    0    0    0  -1.0986296750E+00  -1.5893022917E+00  -4.4279498691E-01   2.2201207935E+00   1.0000000000E+00     0.000   1.
3000022   2   5   0   0   0   -2.3724539902E+01   1.1215697537E+01   -1.4559298057E+00   2.6283605088E+01   2.5000000000E-01   1.437121E+00   0.
13    1    7    0    0    0   1.9221705716E+01  -6.9101555789E+00   1.6893647497E+02   1.7016688227E+02   1.0500000000E-01     0.000  -1.
-13    1    7    0    0    0   6.1565745779E+00  -2.2432463807E+00   5.4238381530E+01   5.4632852944E+01   1.0500000000E-01     0.000   1.
13    1    9    0    0    0  -1.0812139345E+01   5.0657462154E+00  -6.0973541142E-01   1.1956042164E+01   1.0500000000E-01     0.000  -1.
-13    1    9    0    0    0  -1.2912400556E+01   6.1499513216E+00  -8.4619439431E-01   1.4327562924E+01   1.0500000000E-01     0.000   1.
</event>
<event>
 13   1  9.2978750E-05  1.2500000E+02  7.5467720E-03  1.2380620E-01
   21   -1    0    0  502  501   0.0000000000E+00   0.0000000000E+00   1.1948631368E+01   1.1948631368E+01   0.0000000000E+00     0.000   1.
   21   -1    0    0  501  502   0.0000000000E+00   0.0000000000E+00  -3.2692028734E+02   3.2692028734E+02   0.0000000000E+00     0.000   1.
   25    2    1    2    0    0   0.0000000000E+00   0.0000000000E+00  -3.1497165597E+02   3.3886891871E+02   1.2500000000E+02  3.003E-08  -1.
3000002    2    3    0    0    0   9.4973312266E+00   6.5600533128E+00  -3.2178416121E+02   3.2214636426E+02   1.0000000000E+01  3.174E-10   1.
3000002    2    3    0    0    0  -9.4973312266E+00  -6.5600533128E+00   6.8125052361E+00   1.6722554455E+01   1.0000000000E+01  4.420E-12   1.
3000001    1    4    0    0    0   1.3742547426E+00   2.3973216157E+00  -1.9121137635E+01   1.9345635980E+01   1.0000000000E+00     0.000  -1.
3000022   2   4   0   0   0   8.1230764840E+00   4.1627316971E+00   -3.0266302357E+02   3.0280072828E+02   2.5000000000E-01   1.528412E+01   0.
3000001    1    5    0    0    0  -1.1282368010E+01  -5.4192275538E+00   7.3141237163E+00   1.4531216774E+01   1.0000000000E+00     0.000   1.
3000022   2   5   0   0   0   1.7850367835E+00   -1.1408257590E+00   -5.0161848025E-01   2.1913376806E+00   2.5000000000E-01   3.686944E+00   0.
13    1    7    0    0    0   2.3329338229E+00   1.2422832499E+00  -8.7343643085E+01   8.7383687610E+01   1.0500000000E-01     0.000   1.
-13    1    7    0    0    0   5.7901426610E+00   2.9204484472E+00  -2.1531938048E+02   2.1541704066E+02   1.0500000000E-01     0.000  -1.
13    1    9    0    0    0   7.5215164272E-01  -4.0564083523E-01  -2.0586828174E-01   8.8525890579E-01   1.0500000000E-01     0.000   1.
-13    1    9    0    0    0   1.0328851407E+00  -7.3518492378E-01  -2.9575019851E-01   1.3060787748E+00   1.0500000000E-01     0.000  -1.
</event>
<event>
 13   1  9.2978750E-05  1.2500000E+02  7.5467720E-03  1.2380620E-01
   21   -1    0    0  502  501   0.0000000000E+00   0.0000000000E+00   1.0919008468E+02   1.0919008468E+02   0.0000000000E+00     0.000  -1.
   21   -1    0    0  501  502   0.0000000000E+00   0.0000000000E+00  -3.5774768483E+01   3.5774768483E+01   0.0000000000E+00     0.000  -1.
   25    2    1    2    0    0   0.0000000000E+00   0.0000000000E+00   7.3415316197E+01   1.4496485316E+02   1.2500000000E+02  8.768E-08  -1.
3000002    2    3    0    0    0  -4.9017490526E+01  -3.2642700993E+01   5.8028504238E+01   8.3280055293E+01   1.0000000000E+01  1.313E-10  -1.
3000002    2    3    0    0    0   4.9017490526E+01   3.2642700993E+01   1.5386811959E+01   6.1684797867E+01   1.0000000000E+01  3.114E-10  -1.
3000001    1    4    0    0    0  -8.7225039838E+00  -9.9363336755E+00   1.0054528445E+01   1.6640503145E+01   1.0000000000E+00     0.000  -1.
3000022   2   4   0   0   0   -4.0294986542E+01   -2.2706367317E+01   4.7973975793E+01   6.6639552149E+01   2.5000000000E-01   2.967250E+00   0.
3000001    1    5    0    0    0   3.0097794125E+01   2.2113226682E+01   5.0866574755E+00   3.7706048451E+01   1.0000000000E+00     0.000  -1.
3000022   2   5   0   0   0   1.8919696401E+01   1.0529474311E+01   1.0300154484E+01   2.3978749416E+01   2.5000000000E-01   1.176833E+00   0.
13    1    7    0    0    0  -1.3166212624E+01  -7.3947171092E+00   1.5731602598E+01   2.1806543543E+01   1.0500000000E-01     0.000   1.
-13    1    7    0    0    0  -2.7128773918E+01  -1.5311650208E+01   3.2242373195E+01   4.4833008606E+01   1.0500000000E-01     0.000  -1.
13    1    9    0    0    0   1.3932485204E+01   7.7215068558E+00   7.5571958522E+00   1.7631166900E+01   1.0500000000E-01     0.000  -1.
-13    1    9    0    0    0   4.9872111965E+00   2.8079674549E+00   2.7429586316E+00   6.3475825163E+00   1.0500000000E-01     0.000   1.
</event>
<event>
 13   1  9.2978750E-05  1.2500000E+02  7.5467720E-03  1.2380620E-01
   21   -1    0    0  502  501   0.0000000000E+00   0.0000000000E+00   1.5544701821E+02   1.5544701821E+02   0.0000000000E+00     0.000   1.
   21   -1    0    0  501  502   0.0000000000E+00   0.0000000000E+00  -2.5129140751E+01   2.5129140751E+01   0.0000000000E+00     0.000   1.
   25    2    1    2    0    0   0.0000000000E+00   0.0000000000E+00   1.3031787746E+02   1.8057615896E+02   1.2500000000E+02  1.696E-08  -1.
3000002    2    3    0    0    0   5.1372248560E+01  -1.5070217266E+01   1.0945054190E+02   1.2225236395E+02   1.0000000000E+01  9.789E-10  -1.
3000002    2    3    0    0    0  -5.1372248560E+01   1.5070217266E+01   2.0867335564E+01   5.8323795007E+01   1.0000000000E+01  6.034E-10  -1.
3000001    1    4    0    0    0   1.6533176264E+01  -9.3986436315E+00   3.4553920964E+01   3.9454453151E+01   1.0000000000E+00     0.000   1.
3000022   2   4   0   0   0   3.4839072296E+01   -5.6715736348E+00   7.4896620933E+01   8.2797910801E+01   2.5000000000E-01   2.866136E+00   0.
3000001    1    5    0    0    0  -2.7030321975E+01   1.2724075596E+01   1.3356340083E+01   3.2740376086E+01   1.0000000000E+00     0.000   1.
3000022   2   5   0   0   0   -2.4341926585E+01   2.3461416702E+00   7.5109954809E+00   2.5583418921E+01   2.5000000000E-01   4.638959E-02   0.
13    1    7    0    0    0   2.5420735440E+01  -4.1722637929E+00   5.4628655468E+01   6.0398034725E+01   1.0500000000E-01     0.000   1.
-13    1    7    0    0    0   9.4183368553E+00  -1.4993098419E+00   2.0267965465E+01   2.2399876076E+01   1.0500000000E-01     0.000  -1.
13    1    9    0    0    0  -1.4663641304E+01   1.3550778857E+00   4.5481802182E+00   1.5412838177E+01   1.0500000000E-01     0.000  -1.
-13    1    9    0    0    0  -9.6782852807E+00   9.9106378449E-01   2.9628152627E+00   1.0170580745E+01   1.0500000000E-01     0.000   1.
</event>
<event>
 13   1  9.2978750E-05  1.2500000E+02  7.5467720E-03  1.2380620E-01
   21   -1    0    0  502  501   0.0000000000E+00   0.0000000000E+00   1.3263199236E+02   1.3263199236E+02   0.0000000000E+00     0.000  -1.
   21   -1    0    0  501  502   0.0000000000E+00   0.0000000000E+00  -2.9451793119E+01   2.9451793119E+01   0.0000000000E+00     0.000  -1.
   25    2    1    2    0    0   0.0000000000E+00   0.0000000000E+00   1.0318019924E+02   1.6208378548E+02   1.2500000000E+02  3.885E-08  -1.
3000002    2    3    0    0    0   8.8716986236E+00  -3.8969208589E+01  -9.3526277204E+00   4.2246631816E+01   1.0000000000E+01  4.081E-10   1.
3000002    2    3    0    0    0  -8.8716986236E+00   3.8969208589E+01   1.1253282696E+02   1.1983715366E+02   1.0000000000E+01  1.466E-09   1.
3000001    1    4    0    0    0   3.8418162792E+00  -4.9078457472E+00  -3.8061447644E+00   7.3711084763E+00   1.0000000000E+00     0.000   1.
3000022   2   4   0   0   0   5.0298823444E+00   -3.4061362842E+01   -5.5464829560E+00   3.4875523340E+01   2.5000000000E-01   7.801658E+00   0.
3000001    1    5    0    0    0  -5.0926288099E+00   6.2747760187E+00   1.8576848727E+01   2.0283170139E+01   1.0000000000E+00     0.000  -1.
3000022   2   5   0   0   0   -3.7790698137E+00   3.2694432571E+01   9.3955978234E+01   9.9553983525E+01   2.5000000000E-01   1.517413E+00   0.
13    1    7    0    0    0   3.8728905256E+00  -2.6252830158E+01  -4.2768895303E+00   2.6879605306E+01   1.0500000000E-01     0.000  -1.
-13    1    7    0    0    0   1.1569918188E+00  -7.8085326836E+00  -1.2695934256E+00   7.9959180340E+00   1.0500000000E-01     0.000   1.
13    1    9    0    0    0  -2.0890143956E+00   1.7609817828E+01   5.0747622047E+01   5.3756877081E+01   1.0500000000E-01     0.000   1.
-13    1    9    0    0    0  -1.6900554181E+00   1.5084614743E+01   4.3208356186E+01   4.5797106443E+01   1.0500000000E-01     0.000  -1.
</event>
<event>
 13   1  9.2978750E-05  1.2500000E+02  7.5467720E-03  1.2380620E-01
   21   -1    0    0  502  501   0.0000000000E+00   0.0000000000E+00   6.7716156859E+02   6.7716156859E+02   0.0000000000E+00     0.000  -1.
   21   -1    0    0  501  502   0.0000000000E+00   0.0000000000E+00  -5.7685642263E+00   5.7685642263E+00   0.0000000000E+00     0.000  -1.
   25    2    1    2    0    0   0.0000000000E+00   0.0000000000E+00   6.7139300436E+02   6.8293013281E+02   1.2500000000E+02  2.653E-09  -1.
3000002    2    3    0    0    0  -2.9218024558E+01  -5.4337371019E+01   3.3615850470E+02   3.4191926405E+02   1.0000000000E+01  3.251E-10   1.
3000002    2    3    0    0    0   2.9218024558E+01   5.4337371019E+01   3.3523449966E+02   3.4101086876E+02   1.0000000000E+01  9.419E-10   1.
3000001    1    4    0    0    0  -2.7577244962E+01  -5.1046494871E+01   3.2573481804E+02   3.3086314506E+02   1.0000000000E+00     0.000   1.
3000022   2   4   0   0   0   -1.6407795953E+00   -3.2908761478E+00   1.0423686659E+01   1.1056118988E+01   2.5000000000E-01   1.394161E+00   0.
3000001    1    5    0    0    0   1.2884463465E+01   3.3373162292E+01   1.8119486032E+02   1.8469530250E+02   1.0000000000E+00     0.000   1.
3000022   2   5   0   0   0   1.6333561092E+01   2.0964208727E+01   1.5403963935E+02   1.5631556626E+02   2.5000000000E-01   9.650511E+00   0.
13    1    7    0    0    0  -6.7919109689E-01  -1.2462295973E+00   4.1258569772E+00   4.3644139986E+00   1.0500000000E-01     0.000   1.
-13    1    7    0    0    0  -9.6158849845E-01  -2.0446465504E+00   6.2978296819E+00   6.6917049889E+00   1.0500000000E-01     0.000  -1.
13    1    9    0    0    0   1.0039343048E+01   1.2960168325E+01   9.4780876503E+01   9.6188252648E+01   1.0500000000E-01     0.000  -1.
-13    1    9    0    0    0   6.2942180444E+00   8.0040404016E+00   5.9258762845E+01   6.0127313614E+01   1.0500000000E-01     0.000   1.
</event>
<event>
 13   1  9.2978750E-05  1.2500000E+02  7.5467720E-03  1.2380620E-01
   21   -1    0    0  502  501   0.0000000000E+00   0.0000000000E+00   7.1817168967E+01   7.1817168967E+01   0.0000000000E+00     0.000   1.
   21   -1    0    0  501  502   0.0000000000E+00   0.0000000000E+00  -5.4391589869E+01   5.4391589869E+01   0.0000000000E+00     0.000   1.
   25    2    1    2    0    0   0.0000000000E+00   0.0000000000E+00   1.7425579098E+01   1.2620875884E+02   1.2500000000E+02  2.030E-08  -1.
3000002    2    3    0    0    0   4.9344267610E+00  -6.1486589793E+01   9.8643041609E+00   6.3263368456E+01   1.0000000000E+01  1.245E-09   1.
3000002    2    3    0    0    0  -4.9344267610E+00   6.1486589793E+01   7.5612749371E+00   6.2945390384E+01   1.0000000000E+01  2.996E-11   1.
3000001    1    4    0    0    0   5.3189537851E+00  -2.0523856137E+01   6.3131776310E+00   2.2144438397E+01   1.0000000000E+00     0.000  -1.
3000022   2   4   0   0   0   -3.8452702411E-01   -4.0962733656E+01   3.5511265299E+00   4.1118930060E+01   2.5000000000E-01   1.128968E+00   0.
3000001    1    5    0    0    0  -4.0389399810E+00   9.3412346977E+00  -1.3510967875E-01   1.0226923119E+01   1.0000000000E+00     0.000  -1.
3000022   2   5   0   0   0   -8.9548678002E-01   5.2145355096E+01   7.6963846158E+00   5.2718467265E+01   2.5000000000E-01   5.465202E+00   0.
13    1    7    0    0    0  -2.7237181712E-01  -2.2117218902E+01   1.9350348171E+00   2.2203624549E+01   1.0500000000E-01     0.000  -1.
-13    1    7    0    0    0  -1.1215520699E-01  -1.8845514754E+01   1.6160917127E+00   1.8915305511E+01   1.0500000000E-01     0.000   1.
13    1    9    0    0    0  -3.4908976296E-01   2.4173952966E+01   3.5551595977E+00   2.4436694752E+01   1.0500000000E-01     0.000   1.
-13    1    9    0    0    0  -5.4639701705E-01   2.7971402130E+01   4.1412250181E+00   2.8281772512E+01   1.0500000000E-01     0.000  -1.
</event>
<event>
 13   1  9.2978750E-05  1.2500000E+02  7.5467720E-03  1.2380620E-01
   21   -1    0    0  502  501   0.0000000000E+00   0.0000000000E+00   7.8813896748E+00   7.8813896748E+00   0.0000000000E+00     0.000  -1.
   21   -1    0    0  501  502   0.0000000000E+00   0.0000000000E+00  -4.9562959848E+02   4.9562959848E+02   0.0000000000E+00     0.000  -1.
   25    2    1    2    0    0   0.0000000000E+00   0.0000000000E+00  -4.8774820881E+02   5.0351098816E+02   1.2500000000E+02  4.851E-08  -1.
3000002    2    3    0    0    0   4.6325379145E+01  -2.2850691789E+01  -3.7976194284E+02   3.8338926445E+02   1.0000000000E+01  8.893E-11  -1.
3000002    2    3    0    0    0  -4.6325379145E+01   2.2850691789E+01  -1.0798626597E+02   1.2012172371E+02   1.0000000000E+01  4.147E-11  -1.
3000001    1    4    0    0    0   1.7367333731E+01  -7.1891591106E+00  -1.0643194627E+02   1.0808361336E+02   1.0000000000E+00     0.000  -1.
3000022   2   4   0   0   0   2.8958045415E+01   -1.5661532678E+01   -2.7332999657E+02   2.7530565109E+02   2.5000000000E-01   1.509288E+01   0.
3000001    1    5    0    0    0  -2.8378610757E+01   1.9165140119E+01  -7.2335397557E+01   8.0037852819E+01   1.0000000000E+00     0.000   1.
3000022   2   5   0   0   0   -1.7946768389E+01   3.6855516702E+00   -3.5650868413E+01   4.0083870887E+01   2.5000000000E-01   2.983123E-01   0.
13    1    7    0    0    0   1.3983381038E+01  -7.5096790640E+00  -1.3218761506E+02   1.3313717296E+02   1.0500000000E-01     0.000  -1.
-13    1    7    0    0    0   1.4974664377E+01  -8.1518536143E+00  -1.4114238151E+02   1.4216847813E+02   1.0500000000E-01     0.000   1.
13    1    9    0    0    0  -9.8152586100E+00   1.9474446598E+00  -1.9468214766E+01   2.1889592355E+01   1.0500000000E-01     0.000  -1.
-13    1    9    0    0    0  -8.1315097789E+00   1.7381070104E+00  -1.6182653647E+01   1.8194278532E+01   1.0500000000E-01     0.000   1.
</event>
<event>
 13   1  9.2978750E-05  1.2500000E+02  7.5467720E-03  1.2380620E-01
   21   -1    0    0  502  501   0.0000000000E+00   0.0000000000E+00   6.9381511727E+01   6.9381511727E+01   0.0000000000E+00     0.000   1.
   21   -1    0    0  501  502   0.0000000000E+00   0.0000000000E+00  -5.6301021738E+01   5.6301021738E+01   0.0000000000E+00     0.000   1.
   25    2    1    2    0    0   0.0000000000E+00   0.0000000000E+00   1.3080489989E+01   1.2568253347E+02   1.2500000000E+02  2.321E-08  -1.
3000002    2    3    0    0    0  -3.4482907701E+01  -2.3852713782E+01   5.2044705499E+01   6.7577172542E+01   1.0000000000E+01  3.316E-10   1.
3000002    2    3    0    0    0   3.4482907701E+01   2.3852713782E+01  -3.8964215510E+01   5.8105360928E+01   1.0000000000E+01  1.539E-10   1.
3000001    1    4    0    0    0  -1.1721790954E+01  -1.0549605844E+01   1.2986615512E+01   2.0453526568E+01   1.0000000000E+00     0.000  -1.
3000022   2   4   0   0   0   -2.2761116747E+01   -1.3303107938E+01   3.9058089988E+01   4.7123645974E+01   2.5000000000E-01   4.139704E+00   0.
3000001    1    5    0    0    0   1.4148723948E+01   5.5431683215E+00  -9.7775769997E+00   1.8097351088E+01   1.0000000000E+00     0.000  -1.
3000022   2   5   0   0   0   2.0334183752E+01   1.8309545461E+01   -2.9186638510E+01   4.0008009840E+01   2.5000000000E-01   1.877987E+00   0.
13    1    7    0    0    0  -1.3699993025E+01  -7.9400357720E+00   2.3502655019E+01   2.8339368287E+01   1.0500000000E-01     0.000  -1.
-13    1    7    0    0    0  -9.0611237224E+00  -5.3630721659E+00   1.5555434968E+01   1.8784277687E+01   1.0500000000E-01     0.000   1.
13    1    9    0    0    0   1.0219295696E+01   9.2929022156E+00  -1.4738542045E+01   2.0199695115E+01   1.0500000000E-01     0.000  -1.
-13    1    9    0    0    0   1.0114888056E+01   9.0166432450E+00  -1.4448096465E+01   1.9808314726E+01   1.0500000000E-01     0.000   1.
</event>
<event>
 13   1  9.2978750E-05  1.2500000E+02  7.5467720E-03  1.2380620E-01
   21   -1    0    0  502  501   0.0000000000E+00   0.0000000000E+00   7.5356994207E+02   7.5356994207E+02   0.0000000000E+00     0.000  -1.
   21   -1    0    0  501  502   0.0000000000E+00   0.0000000000E+00  -5.1836595144E+00   5.1836595144E+00   0.0000000000E+00     0.000  -1.
   25    2    1    2    0    0   0.0000000000E+00   0.0000000000E+00   7.4838628255E+02   7.5875360158E+02   1.2500000000E+02  1.764E-08  -1.
3000002    2    3    0    0    0  -5.9427206400E+01  -1.6378513200E+01   3.8955096819E+02   3.9452478423E+02   1.0000000000E+01  3.294E-10   1.
3000002    2    3    0    0    0   5.9427206400E+01   1.6378513200E+01   3.5883531436E+02   3.6422881735E+02   1.0000000000E+01  4.464E-10   1.
3000001    1    4    0    0    0  -5.1655997877E+01  -1.2116853108E+01   3.4935454129E+02   3.5336207460E+02   1.0000000000E+00     0.000   1.
3000022   2   4   0   0   0   -7.7712085229E+00   -4.2616600921E+00   4.0196426895E+01   4.1162709626E+01   2.5000000000E-01   1.246581E+01   0.
3000001    1    5    0    0    0   5.4726757375E+01   1.4292795171E+01   3.0968869569E+02   3.1481326244E+02   1.0000000000E+00     0.000   1.
3000022   2   5   0   0   0   4.7004490248E+00   2.0857180291E+00   4.9146618670E+01   4.9415554914E+01   2.5000000000E-01   3.652044E+00   0.
13    1    7    0    0    0  -4.0780554570E+00  -2.2394819860E+00   2.1412935886E+01   2.1912796812E+01   1.0500000000E-01     0.000   1.
-13    1    7    0    0    0  -3.6931530659E+00  -2.0221781061E+00   1.8783491009E+01   1.9249912814E+01   1.0500000000E-01     0.000  -1.
13    1    9    0    0    0   2.0043192186E+00   9.5148866396E-01   2.0889646883E+01   2.1007403412E+01   1.0500000000E-01     0.000  -1.
-13    1    9    0    0    0   2.6961298062E+00   1.1342293651E+00   2.8256971787E+01   2.8408151502E+01   1.0500000000E-01     0.000   1.
</event>
<event>
 13   1  9.2978750E-05  1.2500000E+02  7.5467720E-03  1.2380620E-01
   21   -1    0    0  502  501   0.0000000000E+00   0.0000000000E+00   3.1279531835E+02   3.1279531835E+02   0.0000000000E+00     0.000   1.
   21   -1    0    0  501  502   0.0000000000E+00   0.0000000000E+00  -1.2488198419E+01   1.2488198419E+01   0.0000000000E+00     0.000   1.
   25    2    1    2    0    0   0.0000000000E+00   0.0000000000E+00   3.0030711993E+02   3.2528351677E+02   1.2500000000E+02  1.545E-07  -1.
3000002    2    3    0    0    0   1.6811514863E+01   3.5246320725E+01   2.5861000076E+01   4.7892812420E+01   1.0000000000E+01  1.154E-09  -1.
3000002    2    3    0    0    0  -1.6811514863E+01  -3.5246320725E+01   2.7444611985E+02   2.7739070435E+02   1.0000000000E+01  1.734E-09  -1.
3000001    1    4    0    0    0   1.2671025217E+01   3.2279494302E+01   1.9700238120E+01   3.9895112663E+01   1.0000000000E+00     0.000  -1.
3000022   2   4   0   0   0   4.1404896454E+00   2.9668264230E+00   6.1607619558E+00   7.9976997570E+00   2.5000000000E-01   2.274680E-01   0.
3000001    1    5    0    0    0  -1.4781474920E+01  -1.9985725416E+01   1.7510536002E+02   1.7686381294E+02   1.0000000000E+00     0.000  -1.
3000022   2   5   0   0   0   -2.0300399429E+00   -1.5260595308E+01   9.9340759834E+01   1.0052689141E+02   2.5000000000E-01   2.434799E+00   1.
13    1    7    0    0    0   1.5834838015E+00   1.2082308805E+00   2.3834393704E+00   3.1079013888E+00   1.0500000000E-01     0.000   1.
-13    1    7    0    0    0   2.5570058439E+00   1.7585955425E+00   3.7773225854E+00   4.8897983682E+00   1.0500000000E-01     0.000  -1.
13    1    9    0    0    0  -1.2929175124E+00  -1.0045467476E+01   6.5125655933E+01   6.5908612018E+01   1.0500000000E-01     0.000   1.
-13    1    9    0    0    0  -7.3712243049E-01  -5.2151278329E+00   3.4215103901E+01   3.4618279388E+01   1.0500000000E-01     0.000   1.
</event>
<event>
 13   1  9.2978750E-05  1.2500000E+02  7.5467720E-03  1.2380620E-01
   21   -1    0    0  502  501   0.0000000000E+00   0.0000000000E+00   4.3926424174E+01   4.3926424174E+01   0.0000000000E+00     0.000  -1.
   21   -1    0    0  501  502   0.0000000000E+00   0.0000000000E+00  -8.8927111037E+01   8.8927111037E+01   0.0000000000E+00     0.000  -1.
   25    2    1    2    0    0   0.0000000000E+00   0.0000000000E+00  -4.5000686862E+01   1.3285353521E+02   1.2500000000E+02  1.106E-07  -1.
3000002    2    3    0    0    0   7.5034112297E+00   5.3753673683E+01  -5.3677490083E+01   7.6987216836E+01   1.0000000000E+01  4.015E-09   1.
3000002    2    3    0    0    0  -7.5034112297E+00  -5.3753673683E+01   8.6768032214E+00   5.5866318374E+01   1.0000000000E+01  1.230E-10   1.
3000001    1    4    0    0    0   8.1474055802E+00   4.2767712506E+01  -4.7175449860E+01   6.4202651971E+01   1.0000000000E+00     0.000  -1.
3000022   2   4   0   0   0   -6.4399435046E-01   1.0985961177E+01   -6.5020402235E+00   1.2784564865E+01   2.5000000000E-01   5.102034E-01   0.
3000001    1    5    0    0    0  -7.8817040221E+00  -2.2591180951E+01   5.2159822100E+00   2.4508961330E+01   1.0000000000E+00     0.000   1.
3000022   2   5   0   0   0   3.7829279236E-01   -3.1162492732E+01   3.4608210113E+00   3.1357357044E+01   2.5000000000E-01   9.572010E+00   0.
13    1    7    0    0    0  -4.7931517179E-01   7.4686727352E+00  -4.4551863136E+00   8.7103688526E+00   1.0500000000E-01     0.000  -1.
-13    1    7    0    0    0  -1.6467917867E-01   3.5172884423E+00  -2.0468539099E+00   4.0741960123E+00   1.0500000000E-01     0.000   1.
13    1    9    0    0    0   1.5711683552E-01  -1.2190165847E+01   1.2920116575E+00   1.2259900008E+01   1.0500000000E-01     0.000   1.
-13    1    9    0    0    0   2.2117595684E-01  -1.8972326885E+01   2.1688093538E+00   1.9097457036E+01   1.0500000000E-01     0.000  -1.
</event>
<event>
 13   1  9.2978750E-05  1.2500000E+02  7.5467720E-03  1.2380620E-01
   21   -1    0    0  502  501   0.0000000000E+00   0.0000000000E+00   2.0291866621E+01   2.0291866621E+01   0.0000000000E+00     0.000   1.
   21   -1    0    0  501  502   0.0000000000E+00   0.0000000000E+00  -1.9250323654E+02   1.9250323654E+02   0.0000000000E+00     0.000   1.
   25    2    1    2    0    0   0.0000000000E+00   0.0000000000E+00  -1.7221136992E+02   2.1279510316E+02   1.2500000000E+02  1.071E-07  -1.
3000002    2    3    0    0    0   4.7381795556E+01   3.3024213802E+01  -1.2303619521E+02   1.3628477016E+02   1.0000000000E+01  8.382E-10   1.
3000002    2    3    0    0    0  -4.7381795556E+01  -3.3024213802E+01  -4.9175174714E+01   7.6510332998E+01   1.0000000000E+01  8.740E-11   1.
3000001    1    4    0    0    0   1.3624644383E+01   5.3653928902E+00  -3.7209611682E+01   3.9999669711E+01   1.0000000000E+00     0.000   1.
3000022   2   4   0   0   0   3.3757151173E+01   2.7658820912E+01   -8.5826583524E+01   9.6285100451E+01   2.5000000000E-01   9.060907E+00   0.
3000001    1    5    0    0    0  -1.7749086774E+01  -7.0880029358E+00  -1.4063548748E+01   2.3749805690E+01   1.0000000000E+00     0.000   1.
3000022   2   5   0   0   0   -2.9632708781E+01   -2.5936210866E+01   -3.5111625966E+01   5.2760527308E+01   2.5000000000E-01   6.281079E-01   0.
13    1    7    0    0    0   1.9450824101E+01   1.5867215879E+01  -4.9446613446E+01   5.5453419229E+01   1.0500000000E-01     0.000  -1.
-13    1    7    0    0    0   1.4306327071E+01   1.1791605033E+01  -3.6379970078E+01   4.0831681222E+01   1.0500000000E-01     0.000   1.
13    1    9    0    0    0  -9.5892055846E+00  -8.4449109355E+00  -1.1438337685E+01   1.7149809867E+01   1.0500000000E-01     0.000  -1.
-13    1    9    0    0    0  -2.0043503197E+01  -1.7491299931E+01  -2.3673288281E+01   3.5610717441E+01   1.0500000000E-01     0.000   1.
</event>
<event>
 13   1  9.2978750E-05  1.2500000E+02  7.5467720E-03  1.2380620E-01
   21   -1    0    0  502  501   0.0000000000E+00   0.0000000000E+00   2.6300687213E+01   2.6300687213E+01   0.0000000000E+00     0.000   1.
   21   -1    0    0  501  502   0.0000000000E+00   0.0000000000E+00  -1.4852273510E+02   1.4852273510E+02   0.0000000000E+00     0.000   1.
   25    2    1    2    0    0   0.0000000000E+00   0.0000000000E+00  -1.2222204789E+02   1.7482342232E+02   1.2500000000E+02  1.072E-07  -1.
3000002    2    3    0    0    0   1.0297561353E+01   4.4024640684E+01  -2.4029761134E+00   4.6367909715E+01   1.0000000000E+01  6.331E-10  -1.
3000002    2    3    0    0    0  -1.0297561353E+01  -4.4024640684E+01  -1.1981907178E+02   1.2845551260E+02   1.0000000000E+01  4.798E-10  -1.
3000001    1    4    0    0    0   1.0361866840E+01   2.3579288537E+01  -2.7228130165E+00   2.5918426708E+01   1.0000000000E+00     0.000  -1.
3000022   2   4   0   0   0   -6.4305486518E-02   2.0445352147E+01   3.1983690316E-01   2.0449483007E+01   2.5000000000E-01   3.534364E+00   0.
3000001    1    5    0    0    0  -5.6475292271E+00  -7.3103265021E+00  -2.3264572768E+01   2.5051463151E+01   1.0000000000E+00     0.000  -1.
3000022   2   5   0   0   0   -4.6500321261E+00   -3.6714314182E+01   -9.6554499008E+01   1.0340404945E+02   2.5000000000E-01   1.010295E+01   0.
13    1    7    0    0    0  -1.3099474678E-02   1.2376490591E+01   2.5052894995E-01   1.2379478208E+01   1.0500000000E-01     0.000  -1.
-13    1    7    0    0    0  -5.1206011840E-02   8.0688615560E+00   6.9307953203E-02   8.0700047991E+00   1.0500000000E-01     0.000   1.
13    1    9    0    0    0  -2.2007567705E+00  -1.6851694619E+01  -4.4305235862E+01   4.7453007193E+01   1.0500000000E-01     0.000   1.
-13    1    9    0    0    0  -2.4492753557E+00  -1.9862619562E+01  -5.2249263147E+01   5.5951042260E+01   1.0500000000E-01     0.000  -1.
</event>
<event>
 13   1  9.2978750E-05  1.2500000E+02  7.5467720E-03  1.2380620E-01
   21   -1    0    0  502  501   0.0000000000E+00   0.0000000000E+00   1.1293188333E+01   1.1293188333E+01   0.0000000000E+00     0.000   1.
   21   -1    0    0  501  502   0.0000000000E+00   0.0000000000E+00  -3.4589434665E+02   3.4589434665E+02   0.0000000000E+00     0.000   1.
   25    2    1    2    0    0   0.0000000000E+00   0.0000000000E+00  -3.3460115832E+02   3.5718753498E+02   1.2500000000E+02  7.491E-08  -1.
3000002    2    3    0    0    0   2.5554206597E+01  -3.2753049497E+01  -3.6963783691E+01   5.6498681675E+01   1.0000000000E+01  3.281E-10   1.
3000002    2    3    0    0    0  -2.5554206597E+01   3.2753049497E+01  -2.9763737463E+02   3.0068885331E+02   1.0000000000E+01  1.025E-11   1.
3000001    1    4    0    0    0   1.3502187614E+01  -1.7128325524E+01  -2.5899147285E+01   3.3874096824E+01   1.0000000000E+00     0.000   1.
3000022   2   4   0   0   0   1.2052018984E+01   -1.5624723973E+01   -1.1064636407E+01   2.2624584850E+01   2.5000000000E-01   1.428601E+00   0.
3000001    1    5    0    0    0  -1.8956769767E+01   2.7931984305E+01  -2.1341188998E+02   2.1606755807E+02   1.0000000000E+00     0.000  -1.
3000022   2   5   0   0   0   -6.5974368308E+00   4.8210651922E+00   -8.4225484649E+01   8.4621295232E+01   2.5000000000E-01   2.962909E+00   0.
13    1    7    0    0    0   8.1516065331E+00  -1.0616835107E+01  -7.5527328580E+00   1.5369472189E+01   1.0500000000E-01     0.000   1.
-13    1    7    0    0    0   3.9004124509E+00  -5.0078888665E+00  -3.5119035489E+00   7.2551126610E+00   1.0500000000E-01     0.000  -1.
13    1    9    0    0    0  -3.1538107762E+00   2.3794913963E+00  -4.1035078084E+01   4.1224957976E+01   1.0500000000E-01     0.000   1.
-13    1    9    0    0    0  -3.4436260546E+00   2.4415737960E+00  -4.3190406565E+01   4.3396337256E+01   1.0500000000E-01     0.000  -1.
</event>
<event>
 13   1  9.2978750E-05  1.2500000E+02  7.5467720E-03  1.2380620E-01
   21   -1    0    0  502  501   0.0000000000E+00   0.0000000000E+00   6.3683675910E+01   6.3683675910E+01   0.0000000000E+00     0.000  -1.
   21   -1    0    0  501  502   0.0000000000E+00   0.0000000000E+00  -6.1338324840E+01   6.1338324840E+01   0.0000000000E+00     0.000  -1.
   25    2    1    2    0    0   0.0000000000E+00   0.0000000000E+00   2.3453510696E+00   1.2502200075E+02   1.2500000000E+02  5.466E-08  -1.
3000002    2    3    0    0    0  -5.9843669115E+01   1.4949562149E+01  -5.0592631443E-02   6.2488052468E+01   1.0000000000E+01  1.298E-10  -1.
3000002    2    3    0    0    0   5.9843669115E+01  -1.4949562149E+01   2.3959437010E+00   6.2533948282E+01   1.0000000000E+01  1.526E-09  -1.
3000001    1    4    0    0    0  -1.3489942335E+01  -7.2084578304E-01   4.5833406836E-01   1.3553901024E+01   1.0000000000E+00     0.000   1.
3000022   2   4   0   0   0   -4.6353726780E+01   1.5670407932E+01   -5.0892669980E-01   4.8934151443E+01   2.5000000000E-01   6.150304E+00   0.
3000001    1    5    0    0    0   5.4612156872E+01  -1.6083426413E+01   8.1143334940E-01   5.6945787443E+01   1.0000000000E+00     0.000  -1.
3000022   2   5   0   0   0   5.2315122425E+00   1.1338642640E+00   1.5845103516E+00   5.5881608394E+00   2.5000000000E-01   6.920293E+00   0.
13    1    7    0    0    0  -2.2722257129E+01   7.6271362706E+00  -2.0525031929E-01   2.3969299728E+01   1.0500000000E-01     0.000  -1.
-13    1    7    0    0    0  -2.3631469650E+01   8.0432716611E+00  -3.0367638051E-01   2.4964851716E+01   1.0500000000E-01     0.000   1.
13    1    9    0    0    0   3.3928820339E+00   6.7879264511E-01   1.0386267513E+00   3.6141635933E+00   1.0500000000E-01     0.000  -1.
-13    1    9    0    0    0   1.8386302086E+00   4.5507161886E-01   5.4588360033E-01   1.9739972461E+00   1.0500000000E-01     0.000   1.
</event>
<event>
 13   1  9.2978750E-05  1.2500000E+02  7.5467720E-03  1.2380620E-01
   21   -1    0    0  502  501   0.0000000000E+00   0.0000000000E+00   4.2490375723E+02   4.2490375723E+02   0.0000000000E+00     0.000   1.
   21   -1    0    0  501  502   0.0000000000E+00   0.0000000000E+00  -9.1932583169E+00   9.1932583169E+00   0.0000000000E+00     0.000   1.
   25    2    1    2    0    0   0.0000000000E+00   0.0000000000E+00   4.1571049891E+02   4.3409701554E+02   1.2500000000E+02  2.201E-09  -1.
3000002    2    3    0    0    0  -3.7497431312E+01   4.8963878192E+01   2.1359455878E+02   2.2254472418E+02   1.0000000000E+01  3.736E-10  -1.
3000002    2    3    0    0    0   3.7497431312E+01  -4.8963878192E+01   2.0211594013E+02   2.1155229136E+02   1.0000000000E+01  1.317E-09  -1.
3000001    1    4    0    0    0  -4.5159475249E+00   3.8278293686E+00   3.1320763816E+01   3.1891006659E+01   1.0000000000E+00     0.000   1.
3000022   2   4   0   0   0   -3.2981483787E+01   4.5136048823E+01   1.8227379496E+02   1.9065371752E+02   2.5000000000E-01   1.587589E-01   0.
3000001    1    5    0    0    0   2.3405781011E+01  -3.0795294908E+01   1.4236487388E+02   1.4752944820E+02   1.0000000000E+00     0.000  -1.
3000022   2   5   0   0   0   1.4091650300E+01   -1.8168583284E+01   5.9751066256E+01   6.4022843154E+01   2.5000000000E-01   3.639523E+00   0.
13    1    7    0    0    0  -1.3630117941E+01   1.8752218774E+01   7.5496332261E+01   7.8975521739E+01   1.0500000000E-01     0.000   1.
-13    1    7    0    0    0  -1.9351365846E+01   2.6383830049E+01   1.0677746270E+02   1.1167819578E+02   1.0500000000E-01     0.000  -1.
13    1    9    0    0    0   7.3439853749E+00  -9.3610674530E+00   3.0960698844E+01   3.3168352430E+01   1.0500000000E-01     0.000   1.
-13    1    9    0    0    0   6.7476649254E+00  -8.8075158311E+00   2.8790367412E+01   3.0854490723E+01   1.0500000000E-01     0.000  -1.
</event>
<event>
 13   1  9.2978750E-05  1.2500000E+02  7.5467720E-03  1.2380620E-01
   21   -1    0    0  502  501   0.0000000000E+00   0.0000000000E+00   4.1221125804E+02   4.1221125804E+02   0.0000000000E+00     0.000   1.
   21   -1    0    0  501  502   0.0000000000E+00   0.0000000000E+00  -9.4763302162E+00   9.4763302162E+00   0.0000000000E+00     0.000   1.
   25    2    1    2    0    0   0.0000000000E+00   0.0000000000E+00   4.0273492782E+02   4.2168758826E+02   1.2500000000E+02  1.020E-09  -1.
3000002    2    3    0    0    0  -5.6060340170E+01  -2.3741519872E+01   2.3507353006E+02   2.4303494819E+02   1.0000000000E+01  1.919E-10   1.
3000002    2    3    0    0    0   5.6060340170E+01   2.3741519872E+01   1.6766139776E+02   1.7865264007E+02   1.0000000000E+01  3.723E-11   1.
3000001    1    4    0    0    0  -4.9155816349E+01  -2.2715634291E+01   2.1705399249E+02   2.2370902972E+02   1.0000000000E+00     0.000  -1.
3000022   2   4   0   0   0   -6.9045238209E+00   -1.0258855807E+00   1.8019537577E+01   1.9325918475E+01   2.5000000000E-01   2.865187E+00   0.
3000001    1    5    0    0    0   1.3698986501E+01   6.8461891822E+00   3.1171442736E+01   3.4744659729E+01   1.0000000000E+00     0.000  -1.
3000022   2   5   0   0   0   4.2361353669E+01   1.6895330690E+01   1.3648995502E+02   1.4390798034E+02   2.5000000000E-01   6.588254E+00   0.
13    1    7    0    0    0  -4.4378938684E+00  -6.4889179142E-01   1.1417708296E+01   1.2267479377E+01   1.0500000000E-01     0.000   1.
-13    1    7    0    0    0  -2.4666299526E+00  -3.7699378933E-01   6.6018292813E+00   7.0584390979E+00   1.0500000000E-01     0.000  -1.
13    1    9    0    0    0   1.1002381746E+01   4.3626353793E+00   3.5487686329E+01   3.7409516136E+01   1.0500000000E-01     0.000  -1.
-13    1    9    0    0    0   3.1358971924E+01   1.2532695311E+01   1.0100226869E+02   1.0649846420E+02   1.0500000000E-01     0.000   1.
</event>
<event>
 13   1  9.2978750E-05  1.2500000E+02  7.5467720E-03  1.2380620E-01
   21   -1    0    0  502  501   0.0000000000E+00   0.0000000000E+00   3.3105296637E+02   3.3105296637E+02   0.0000000000E+00     0.000   1.
   21   -1    0    0  501  502   0.0000000000E+00   0.0000000000E+00  -1.1799471374E+01   1.1799471374E+01   0.0000000000E+00     0.000   1.
   25    2    1    2    0    0   0.0000000000E+00   0.0000000000E+00   3.1925349499E+02   3.4285243774E+02   1.2500000000E+02  1.738E-08  -1.
3000002    2    3    0    0    0   2.3151413669E+01   5.6953695631E+01   1.4549694056E+02   1.5826898342E+02   1.0000000000E+01  3.198E-10   1.
3000002    2    3    0    0    0  -2.3151413669E+01  -5.6953695631E+01   1.7375655443E+02   1.8458345432E+02   1.0000000000E+01  1.920E-09   1.
3000001    1    4    0    0    0   1.8712618509E+01   4.8524328068E+01   1.1288596883E+02   1.2429406448E+02   1.0000000000E+00     0.000   1.
3000022   2   4   0   0   0   4.4387951596E+00   8.4293675625E+00   3.2610971730E+01   3.3974918943E+01   2.5000000000E-01   1.118406E+00   0.
3000001    1    5    0    0    0  -6.4724048406E+00  -1.5270273221E+01   3.4993094104E+01   3.8737448337E+01   1.0000000000E+00     0.000   1.
3000022   2   5   0   0   0   -1.6679008828E+01   -4.1683422410E+01   1.3876346033E+02   1.4584600599E+02   2.5000000000E-01   2.385101E+00   0.
13    1    7    0    0    0   2.3772255513E+00   4.4449273041E+00   1.7464823579E+01   1.8177999551E+01   1.0500000000E-01     0.000   1.
-13    1    7    0    0    0   2.0615696083E+00   3.9844402584E+00   1.5146148152E+01   1.5796919391E+01   1.0500000000E-01     0.000  -1.
13    1    9    0    0    0  -1.0757090765E+01  -2.6727979399E+01   8.9044968058E+01   9.3590155710E+01   1.0500000000E-01     0.000  -1.
-13    1    9    0    0    0  -5.9219180633E+00  -1.4955443010E+01   4.9718492272E+01   5.2255850275E+01   1.0500000000E-01     0.000   1.
</event>
<event>
 13   1  9.2978750E-05  1.2500000E+02  7.5467720E-03  1.2380620E-01
   21   -1    0    0  502  501   0.0000000000E+00   0.0000000000E+00   8.0280699352E+01   8.0280699352E+01   0.0000000000E+00     0.000  -1.
   21   -1    0    0  501  502   0.0000000000E+00   0.0000000000E+00  -4.8657398746E+01   4.8657398746E+01   0.0000000000E+00     0.000  -1.
   25    2    1    2    0    0   0.0000000000E+00   0.0000000000E+00   3.1623300606E+01   1.2893809810E+02   1.2500000000E+02  2.964E-08  -1.
3000002    2    3    0    0    0  -5.7833914653E+01   1.0992897273E+01  -3.2263773716E+00   5.9799790848E+01   1.0000000000E+01  1.671E-10   1.
3000002    2    3    0    0    0   5.7833914653E+01  -1.0992897273E+01   3.4849677978E+01   6.9138307252E+01   1.0000000000E+01  8.144E-10   1.
3000001    1    4    0    0    0  -2.2040536729E+01   6.8258858422E+00   2.7974894866E+00   2.3263789981E+01   1.0000000000E+00     0.000  -1.
3000022   2   4   0   0   0   -3.5793377924E+01   4.1670114309E+00   -6.0238668582E+00   3.6536000867E+01   2.5000000000E-01   4.461539E+00   0.
3000001    1    5    0    0    0   4.3287098153E+01  -1.2397579192E+01   2.7598897818E+01   5.2822078690E+01   1.0000000000E+00     0.000   1.
3000022   2   5   0   0   0   1.4546816500E+01   1.4046819189E+00   7.2507801592E+00   1.6316228562E+01   2.5000000000E-01   2.416710E+00   0.
13    1    7    0    0    0  -2.0719352206E+01   2.3634076179E+00  -3.4421426083E+00   2.1136144921E+01   1.0500000000E-01     0.000   1.
-13    1    7    0    0    0  -1.5074025718E+01   1.8036038130E+00  -2.5817242499E+00   1.5399855946E+01   1.0500000000E-01     0.000  -1.
13    1    9    0    0    0   7.4801503660E+00   7.4700405801E-01   3.8000334057E+00   8.4238912294E+00   1.0500000000E-01     0.000   1.
-13    1    9    0    0    0   7.0666661341E+00   6.5767786091E-01   3.4507467536E+00   7.8923373329E+00   1.0500000000E-01     0.000  -1.
</event>
<event>
 13   1  9.2978750E-05  1.2500000E+02  7.5467720E-03  1.2380620E-01
   21   -1    0    0  502  501   0.0000000000E+00   0.0000000000E+00   9.5895068875E+01   9.5895068875E+01   0.0000000000E+00     0.000  -1.
   21   -1    0    0  501  502   0.0000000000E+00   0.0000000000E+00  -4.0734628442E+01   4.0734628442E+01   0.0000000000E+00     0.000  -1.
   25    2    1    2    0    0   0.0000000000E+00   0.0000000000E+00   5.5160440433E+01   1.3662969732E+02   1.2500000000E+02  3.073E-08  -1.
3000002    2    3    0    0    0   1.6297076267E+01   1.9687874420E-01   9.2619322829E+01   9.4572577513E+01   1.0000000000E+01  9.807E-11   1.
3000002    2    3    0    0    0  -1.6297076267E+01  -1.9687874420E-01  -3.7458882396E+01   4.2057119807E+01   1.0000000000E+01  3.506E-09   1.
3000001    1    4    0    0    0   2.0098368082E+00   3.3546229664E+00   2.9745928614E+01   3.0018547739E+01   1.0000000000E+00     0.000  -1.
3000022   2   4   0   0   0   1.4287239459E+01   -3.1577442222E+00   6.2873394215E+01   6.4554029774E+01   2.5000000000E-01   5.160143E+00   0.
3000001    1    5    0    0    0  -5.8735851412E+00   3.2082543393E+00  -7.2440625916E+00   9.9130389461E+00   1.0000000000E+00     0.000  -1.
3000022   2   5   0   0   0   -1.0423491126E+01   -3.4051330835E+00   -3.0214819805E+01   3.2144080861E+01   2.5000000000E-01   1.989673E+00   0.
13    1    7    0    0    0   1.0201767491E+01  -2.2797022390E+00   4.5062395141E+01   4.6259091897E+01   1.0500000000E-01     0.000   1.
-13    1    7    0    0    0   4.0854719671E+00  -8.7804198319E-01   1.7810999074E+01   1.8294937878E+01   1.0500000000E-01     0.000  -1.
13    1    9    0    0    0  -7.2059763579E+00  -2.4030158881E+00  -2.0958139038E+01   2.2292491955E+01   1.0500000000E-01     0.000  -1.
-13    1    9    0    0    0  -3.2175147677E+00  -1.0021171955E+00  -9.2566807670E+00   9.8515889061E+00   1.0500000000E-01     0.000   1.
</event>
<event>
 13   1  9.2978750E-05  1.2500000E+02  7.5467720E-03  1.2380620E-01
   21   -1    0    0  502  501   0.0000000000E+00   0.0000000000E+00   7.6381103298E+01   7.6381103298E+01   0.0000000000E+00     0.000   1.
   21   -1    0    0  501  502   0.0000000000E+00   0.0000000000E+00  -5.1141576010E+01   5.1141576010E+01   0.0000000000E+00     0.000   1.
   25    2    1    2    0    0   0.0000000000E+00   0.0000000000E+00   2.5239527288E+01   1.2752267931E+02   1.2500000000E+02  1.221E-08  -1.
3000002    2    3    0    0    0   3.6809681577E+01  -1.1992983037E+01   6.1625288274E+01   7.3460604781E+01   1.0000000000E+01  1.913E-10   1.
3000002    2    3    0    0    0  -3.6809681577E+01   1.1992983037E+01  -3.6385760986E+01   5.4062074529E+01   1.0000000000E+01  2.215E-09   1.
3000001    1    4    0    0    0   5.7105476775E+00  -6.7283988196E-01   4.2349251387E+00   7.2109402448E+00   1.0000000000E+00     0.000  -1.
3000022   2   4   0   0   0   3.1099133900E+01   -1.1320143155E+01   5.7390363135E+01   6.6249664536E+01   2.5000000000E-01   1.065371E+01   0.
3000001    1    5    0    0    0  -3.0153977677E+00   4.0523635356E+00  -6.1898225882E+00   8.0515947237E+00   1.0000000000E+00     0.000  -1.
3000022   2   5   0   0   0   -3.3794283809E+01   7.9406195012E+00   -3.0195938397E+01   4.6010479806E+01   2.5000000000E-01   8.095607E-01   0.
13    1    7    0    0    0   1.3987262122E+01  -5.0205456180E+00   2.5775133848E+01   2.9752612152E+01   1.0500000000E-01     0.000   1.
-13    1    7    0    0    0   1.7111871778E+01  -6.2995975368E+00   3.1615229287E+01   3.6497052385E+01   1.0500000000E-01     0.000  -1.
13    1    9    0    0    0  -2.5867845636E+01   6.0680484196E+00  -2.3097696848E+01   3.5206267540E+01   1.0500000000E-01     0.000   1.
-13    1    9    0    0    0  -7.9264381735E+00   1.8725710816E+00  -7.0982415499E+00   1.0804212265E+01   1.0500000000E-01     0.000  -1.
</event>
<event>
 13   1  9.2978750E-05  1.2500000E+02  7.5467720E-03  1.2380620E-01
   21   -1    0    0  502  501   0.0000000000E+00   0.0000000000E+00   5.3609375344E+00   5.3609375344E+00   0.0000000000E+00     0.000   1.
   21   -1    0    0  501  502   0.0000000000E+00   0.0000000000E+00  -7.2865053452E+02   7.2865053452E+02   0.0000000000E+00     0.000   1.
   25    2    1    2    0    0   0.0000000000E+00   0.0000000000E+00  -7.2328959699E+02   7.3401147206E+02   1.2500000000E+02  2.269E-09  -1.
3000002    2    3    0    0    0  -4.7176345358E+01   3.7385746824E+01  -4.4106977792E+02   4.4527053644E+02   1.0000000000E+01  6.922E-12   1.
3000002    2    3    0    0    0   4.7176345358E+01  -3.7385746824E+01  -2.8221981907E+02   2.8874093562E+02   1.0000000000E+01  5.778E-10   1.
3000001    1    4    0    0    0  -4.5673745077E+01   3.4693472501E+01  -4.2864477004E+02   4.3246626100E+02   1.0000000000E+00     0.000   1.
3000022   2   4   0   0   0   -1.5026002804E+00   2.6922743239E+00   -1.2425007887E+01   1.2804275443E+01   2.5000000000E-01   2.040580E-01   0.
3000001    1    5    0    0    0   1.6825447370E+01  -1.8825300362E+01  -1.0661640428E+02   1.0956981918E+02   1.0000000000E+00     0.000   1.
3000022   2   5   0   0   0   3.0350897988E+01   -1.8560446463E+01   -1.7560341479E+02   1.7917111644E+02   2.5000000000E-01   1.712664E+00   0.
13    1    7    0    0    0  -6.8183935029E-01   1.2988654075E+00  -5.6794637705E+00   5.8667955450E+00   1.0500000000E-01     0.000  -1.
-13    1    7    0    0    0  -8.2076093011E-01   1.3934089164E+00  -6.7455441166E+00   6.9374798985E+00   1.0500000000E-01     0.000   1.
13    1    9    0    0    0   1.1758681497E+01  -7.1204633422E+00  -6.7923426929E+01   6.9300581091E+01   1.0500000000E-01     0.000   1.
-13    1    9    0    0    0   1.8592216491E+01  -1.1439983120E+01  -1.0767998786E+02   1.0987053535E+02   1.0500000000E-01     0.000  -1.
</event>
<event>
 13   1  9.2978750E-05  1.2500000E+02  7.5467720E-03  1.2380620E-01
   21   -1    0    0  502  501   0.0000000000E+00   0.0000000000E+00   7.3223826319E+01   7.3223826319E+01   0.0000000000E+00     0.000   1.
   21   -1    0    0  501  502   0.0000000000E+00   0.0000000000E+00  -5.3346706890E+01   5.3346706890E+01   0.0000000000E+00     0.000   1.
   25    2    1    2    0    0   0.0000000000E+00   0.0000000000E+00   1.9877119430E+01   1.2657053321E+02   1.2500000000E+02  3.983E-08  -1.
3000002    2    3    0    0    0   3.2067898988E+01  -4.8114473541E+01   3.1723928492E+01   6.6706524034E+01   1.0000000000E+01  1.195E-09  -1.
3000002    2    3    0    0    0  -3.2067898988E+01   4.8114473541E+01  -1.1846809062E+01   5.9864009176E+01   1.0000000000E+01  2.827E-10  -1.
3000001    1    4    0    0    0   6.9786120370E-01  -9.6276773211E-02   1.4871874481E-01   1.2322324220E+00   1.0000000000E+00     0.000  -1.
3000022   2   4   0   0   0   3.1370037785E+01   -4.8018196768E+01   3.1575209747E+01   6.5474291612E+01   2.5000000000E-01   1.201214E+00   0.
3000001    1    5    0    0    0  -1.6030287108E+01   2.6978661620E+01  -1.1160607691E+01   3.3322326623E+01   1.0000000000E+00     0.000   1.
3000022   2   5   0   0   0   -1.6037611881E+01   2.1135811922E+01   -6.8620137102E-01   2.6541682553E+01   2.5000000000E-01   2.814099E+00   0.
13    1    7    0    0    0   1.4575024061E+01  -2.2189960866E+01   1.4598827837E+01   3.0297895782E+01   1.0500000000E-01     0.000  -1.
-13    1    7    0    0    0   1.6795013724E+01  -2.5828235902E+01   1.6976381911E+01   3.5176395830E+01   1.0500000000E-01     0.000   1.
13    1    9    0    0    0  -8.9655571827E+00   1.1871719553E+01  -3.2800023133E-01   1.4880777866E+01   1.0500000000E-01     0.000   1.
-13    1    9    0    0    0  -7.0720546981E+00   9.2640923689E+00  -3.5820113969E-01   1.1660904687E+01   1.0500000000E-01     0.000  -1.
</event>
<event>
 13   1  9.2978750E-05  1.2500000E+02  7.5467720E-03  1.2380620E-01
   21   -1    0    0  502  501   0.0000000000E+00   0.0000000000E+00   3.7702498129E+01   3.7702498129E+01   0.0000000000E+00     0.000   1.
   21   -1    0    0  501  502   0.0000000000E+00   0.0000000000E+00  -1.0360719299E+02   1.0360719299E+02   0.0000000000E+00     0.000   1.
   25    2    1    2    0    0   0.0000000000E+00   0.0000000000E+00  -6.5904694866E+01   1.4130969112E+02   1.2500000000E+02  3.115E-08  -1.
3000002    2    3    0    0    0  -1.8283725475E+00  -5.7387754680E+01  -7.4337692400E+00   5.8753368061E+01   1.0000000000E+01  3.006E-10   1.
3000002    2    3    0    0    0   1.8283725475E+00   5.7387754680E+01  -5.8470925626E+01   8.2556323059E+01   1.0000000000E+01  7.037E-10   1.
3000001    1    4    0    0    0   3.4310630645E+00  -1.0350008805E+01  -1.4103452460E+00   1.1040106419E+01   1.0000000000E+00     0.000   1.
3000022   2   4   0   0   0   -5.2594356120E+00   -4.7037745875E+01   -6.0234239940E+00   4.7713261642E+01   2.5000000000E-01   4.532919E+00   0.
3000001    1    5    0    0    0   3.9632855425E+00   4.6000468886E+01  -5.0826114821E+01   6.8673464438E+01   1.0000000000E+00     0.000   1.
3000022   2   5   0   0   0   -2.1349129950E+00   1.1387285794E+01   -7.6448108045E+00   1.3882858621E+01   2.5000000000E-01   3.577604E+00   0.
13    1    7    0    0    0  -3.5798383071E+00  -3.2392484917E+01  -4.1727084290E+00   3.2855910306E+01   1.0500000000E-01     0.000   1.
-13    1    7    0    0    0  -1.6795973049E+00  -1.4645260958E+01  -1.8507155650E+00   1.4857351337E+01   1.0500000000E-01     0.000  -1.
13    1    9    0    0    0  -1.2206615509E+00   6.7506611769E+00  -4.5813511916E+00   8.2499239201E+00   1.0500000000E-01     0.000  -1.
-13    1    9    0    0    0  -9.1425144410E-01   4.6366246172E+00  -3.0634596130E+00   5.6329347009E+00   1.0500000000E-01     0.000   1.
</event>
<event>
 13   1  9.2978750E-05  1.2500000E+02  7.5467720E-03  1.2380620E-01
   21   -1    0    0  502  501   0.0000000000E+00   0.0000000000E+00   2.0724682781E+01   2.0724682781E+01   0.0000000000E+00     0.000   1.
   21   -1    0    0  501  502   0.0000000000E+00   0.0000000000E+00  -1.8848298144E+02   1.8848298144E+02   0.0000000000E+00     0.000   1.
   25    2    1    2    0    0   0.0000000000E+00   0.0000000000E+00  -1.6775829866E+02   2.0920766422E+02   1.2500000000E+02  9.779E-08  -1.
3000002    2    3    0    0    0  -4.7171018231E+01   2.6677205505E+01  -3.4528222373E+01   6.5030580459E+01   1.0000000000E+01  4.721E-10  -1.
3000002    2    3    0    0    0   4.7171018231E+01  -2.6677205505E+01  -1.3323007629E+02   1.4417708376E+02   1.0000000000E+01  3.820E-10  -1.
3000001    1    4    0    0    0  -7.7462311667E+00   7.7778174288E+00  -1.0086315931E+01   1.4940960823E+01   1.0000000000E+00     0.000  -1.
3000022   2   4   0   0   0   -3.9424787064E+01   1.8899388077E+01   -2.4441906442E+01   5.0089619636E+01   2.5000000000E-01   5.278043E+00   0.
3000001    1    5    0    0    0   1.0761177946E+01  -8.6883675231E+00  -2.5164400243E+01   2.8732172222E+01   1.0000000000E+00     0.000  -1.
3000022   2   5   0   0   0   3.6409840285E+01   -1.7988837982E+01   -1.0806567604E+02   1.1544491154E+02   2.5000000000E-01   1.330943E+00   0.
13    1    7    0    0    0  -2.4993618341E+01   1.1958074034E+01  -1.5552540112E+01   3.1773715888E+01   1.0500000000E-01     0.000  -1.
-13    1    7    0    0    0  -1.4431168723E+01   6.9413140430E+00  -8.8893663296E+00   1.8315903748E+01   1.0500000000E-01     0.000   1.
13    1    9    0    0    0   2.0811084063E+01  -1.0272292387E+01  -6.1571927130E+01   6.5800717672E+01   1.0500000000E-01     0.000   1.
-13    1    9    0    0    0   1.5598756223E+01  -7.7165455951E+00  -4.6493748914E+01   4.9644193867E+01   1.0500000000E-01     0.000  -1.
</event>
<event>
 13   1  9.2978750E-05  1.2500000E+02  7.5467720E-03  1.2380620E-01
   21   -1    0    0  502  501   0.0000000000E+00   0.0000000000E+00   4.0959048832E+01   4.0959048832E+01   0.0000000000E+00     0.000   1.
   21   -1    0    0  501  502   0.0000000000E+00   0.0000000000E+00  -9.5369646302E+01   9.5369646302E+01   0.0000000000E+00     0.000   1.
   25    2    1    2    0    0   0.0000000000E+00   0.0000000000E+00  -5.4410597470E+01   1.3632869513E+02   1.2500000000E+02  1.849E-08  -1.
3000002    2    3    0    0    0   1.5811708205E+01  -1.5287592036E-01   3.7833327886E+01   4.2206565678E+01   1.0000000000E+01  1.651E-09  -1.
3000002    2    3    0    0    0  -1.5811708205E+01   1.5287592036E-01  -9.2243925356E+01   9.4122129452E+01   1.0000000000E+01  3.171E-10  -1.
3000001    1    4    0    0    0   1.0506222771E+01  -3.6526947703E+00   1.6340735835E+01   1.9792487050E+01   1.0000000000E+00     0.000  -1.
3000022   2   4   0   0   0   5.3054854347E+00   3.4998188500E+00   2.1492592052E+01   2.2414078629E+01   2.5000000000E-01   1.065203E+00   0.
3000001    1    5    0    0    0  -7.7663768197E+00   8.9986657213E-01  -7.0229361648E+01   7.0670288001E+01   1.0000000000E+00     0.000  -1.
3000022   2   5   0   0   0   -8.0453313857E+00   -7.4699065177E-01   -2.2014563708E+01   2.3451841450E+01   2.5000000000E-01   7.983410E-01   0.
13    1    7    0    0    0   2.7345596012E+00   1.7244102413E+00   1.0880292255E+01   1.1350911481E+01   1.0500000000E-01     0.000   1.
-13    1    7    0    0    0   2.5709258335E+00   1.7754086087E+00   1.0612299797E+01   1.1063167148E+01   1.0500000000E-01     0.000  -1.
13    1    9    0    0    0  -2.6573756417E+00  -2.8816253234E-01  -7.1887621909E+00   7.6703330947E+00   1.0500000000E-01     0.000   1.
-13    1    9    0    0    0  -5.3879557441E+00  -4.5882811943E-01  -1.4825801517E+01   1.5781508356E+01   1.0500000000E-01     0.000  -1.
</event>
<event>
 13   1  9.2978750E-05  1.2500000E+02  7.5467720E-03  1.2380620E-01
   21   -1    0    0  502  501   0.0000000000E+00   0.0000000000E+00   2.5845891009E+01   2.5845891009E+01   0.0000000000E+00     0.000  -1.
   21   -1    0    0  501  502   0.0000000000E+00   0.0000000000E+00  -1.5113620957E+02   1.5113620957E+02   0.0000000000E+00     0.000  -1.
   25    2    1    2    0    0   0.0000000000E+00   0.0000000000E+00  -1.2529031856E+02   1.7698210058E+02   1.2500000000E+02  1.369E-10  -1.
3000002    2    3    0    0    0  -2.2904359838E+01  -3.9832381538E+00   1.8266741467E+01   3.1211371799E+01   1.0000000000E+01  2.398E-10   1.
3000002    2    3    0    0    0   2.2904359838E+01   3.9832381538E+00  -1.4355706003E+02   1.4577072878E+02   1.0000000000E+01  1.217E-09   1.
3000001    1    4    0    0    0  -1.4784573111E+01   1.9810298263E+00   8.6028656553E+00   1.7248692088E+01   1.0000000000E+00     0.000   1.
3000022   2   4   0   0   0   -8.1197867265E+00   -5.9642679801E+00   9.6638758116E+00   1.3962679711E+01   2.5000000000E-01   1.412686E+00   0.
3000001    1    5    0    0    0   2.2155993393E+00   3.2470332954E+00  -3.6949269675E+01   3.7171233974E+01   1.0000000000E+00     0.000   1.
3000022   2   5   0   0   0   2.0688760498E+01   7.3620485842E-01   -1.0660779035E+02   1.0859949481E+02   2.5000000000E-01   5.198098E-01   0.
13    1    7    0    0    0  -2.9599193901E+00  -2.1069616960E+00   3.4559875126E+00   5.0155044683E+00   1.0500000000E-01     0.000   1.
-13    1    7    0    0    0  -5.1598673364E+00  -3.8573062841E+00   6.2078882990E+00   8.9471752431E+00   1.0500000000E-01     0.000  -1.
13    1    9    0    0    0   1.5614639573E+01   5.7830898255E-01  -8.0432413907E+01   8.1936168096E+01   1.0500000000E-01     0.000  -1.
-13    1    9    0    0    0   5.0741209252E+00   1.5789587588E-01  -2.6175376445E+01   2.6663326711E+01   1.0500000000E-01     0.000   1.
</event>
<event>
 13   1  9.2978750E-05  1.2500000E+02  7.5467720E-03  1.2380620E-01
   21   -1    0    0  502  501   0.0000000000E+00   0.0000000000E+00   6.5081984881E+01   6.5081984881E+01   0.0000000000E+00     0.000  -1.
   21   -1    0    0  501  502   0.0000000000E+00   0.0000000000E+00  -6.0020449701E+01   6.0020449701E+01   0.0000000000E+00     0.000  -1.
   25    2    1    2    0    0   0.0000000000E+00   0.0000000000E+00   5.0615351805E+00   1.2510243458E+02   1.2500000000E+02  1.203E-07  -1.
3000002    2    3    0    0    0  -5.6133101610E+01   8.7946418545E+00   2.6591666309E+01   6.3524700226E+01   1.0000000000E+01  1.384E-09  -1.
3000002    2    3    0    0    0   5.6133101610E+01  -8.7946418545E+00  -2.1530131129E+01   6.1577734354E+01   1.0000000000E+01  2.067E-10  -1.
3000001    1    4    0    0    0  -2.3525282907E+01  -9.9877467705E-01   1.2484367872E+01   2.6670131756E+01   1.0000000000E+00     0.000  -1.
3000022   2   4   0   0   0   -3.2607818703E+01   9.7934165316E+00   1.4107298437E+01   3.6854568470E+01   2.5000000000E-01   2.135303E+00   0.
3000001    1    5    0    0    0   3.6955208678E+01  -9.8575027704E+00  -1.6852402876E+01   4.1807431062E+01   1.0000000000E+00     0.000  -1.
3000022   2   5   0   0   0   1.9177892932E+01   1.0628609159E+00   -4.6777282524E+00   1.9770303292E+01   2.5000000000E-01   9.418111E+00   0.
13    1    7    0    0    0  -1.9658686124E+01   5.8395150905E+00   8.5079646569E+00   2.2202710741E+01   1.0500000000E-01     0.000  -1.
-13    1    7    0    0    0  -1.2949132579E+01   3.9539014410E+00   5.5993337803E+00   1.4651857730E+01   1.0500000000E-01     0.000   1.
13    1    9    0    0    0   1.3524282193E+01   7.4963089889E-01  -3.2529139133E+00   1.3930564571E+01   1.0500000000E-01     0.000  -1.
-13    1    9    0    0    0   5.6536107385E+00   3.1323001700E-01  -1.4248143391E+00   5.8397387208E+00   1.0500000000E-01     0.000   1.
</event>
<event>
 13   1  9.2978750E-05  1.2500000E+02  7.5467720E-03  1.2380620E-01
   21   -1    0    0  502  501   0.0000000000E+00   0.0000000000E+00   3.9804334634E+01   3.9804334634E+01   0.0000000000E+00     0.000   1.
   21   -1    0    0  501  502   0.0000000000E+00   0.0000000000E+00  -9.8136296862E+01   9.8136296862E+01   0.0000000000E+00     0.000   1.
   25    2    1    2    0    0   0.0000000000E+00   0.0000000000E+00  -5.8331962229E+01   1.3794063150E+02   1.2500000000E+02  1.185E-08  -1.
3000002    2    3    0    0    0   2.4589885503E+01  -5.4644370602E+01  -1.2963305938E+01   6.2118572169E+01   1.0000000000E+01  1.288E-09  -1.
3000002    2    3    0    0    0  -2.4589885503E+01   5.4644370602E+01  -4.5368656291E+01   7.5822059331E+01   1.0000000000E+01  6.485E-10  -1.
3000001    1    4    0    0    0   2.1915584466E+01  -4.8907661797E+01  -8.2744612866E+00   5.4237615494E+01   1.0000000000E+00     0.000  -1.
3000022   2   4   0   0   0   2.6743010375E+00   -5.7367088047E+00   -4.6888446514E+00   7.8809566751E+00   2.5000000000E-01   9.907767E+00   0.
3000001    1    5    0    0    0  -1.0782746699E+01   1.7730040097E+01  -2.0688864632E+01   2.9319806753E+01   1.0000000000E+00     0.000   1.
3000022   2   5   0   0   0   -1.3807138804E+01   3.6914330504E+01   -2.4679791659E+01   4.6502252578E+01   2.5000000000E-01   4.976414E+00   0.
13    1    7    0    0    0   1.5584221066E+00  -3.4727063026E+00  -2.7802401187E+00   4.7147776876E+00   1.0500000000E-01     0.000   1.
-13    1    7    0    0    0   1.1158789309E+00  -2.2640025022E+00  -1.9086045327E+00   3.1661789875E+00   1.0500000000E-01     0.000  -1.
13    1    9    0    0    0  -9.0493940035E+00   2.4087306935E+01  -1.6063468585E+01   3.0333742519E+01   1.0500000000E-01     0.000   1.
-13    1    9    0    0    0  -4.7577448007E+00   1.2827023569E+01  -8.6163230735E+00   1.6168510059E+01   1.0500000000E-01     0.000  -1.
</event>
<event>
 13   1  9.2978750E-05  1.2500000E+02  7.5467720E-03  1.2380620E-01
   21   -1    0    0  502  501   0.0000000000E+00   0.0000000000E+00   2.7231661040E+01   2.7231661040E+01   0.0000000000E+00     0.000  -1.
   21   -1    0    0  501  502   0.0000000000E+00   0.0000000000E+00  -1.4344516092E+02   1.4344516092E+02   0.0000000000E+00     0.000  -1.
   25    2    1    2    0    0   0.0000000000E+00   0.0000000000E+00  -1.1621349988E+02   1.7067682196E+02   1.2500000000E+02  2.418E-08  -1.
3000002    2    3    0    0    0   6.7120032478E+00   5.4850899865E+01  -9.5564374734E+01   1.1084323129E+02   1.0000000000E+01  8.893E-10   1.
3000002    2    3    0    0    0  -6.7120032478E+00  -5.4850899865E+01  -2.0649125146E+01   5.9833590674E+01   1.0000000000E+01  1.062E-11   1.
3000001    1    4    0    0    0   4.6770149161E-01   1.0316855741E+01  -1.1377712701E+01   1.5398331188E+01   1.0000000000E+00     0.000   1.
3000022   2   4   0   0   0   6.2443017562E+00   4.4534044124E+01   -8.4186662032E+01   9.5444900098E+01   2.5000000000E-01   6.631625E-02   0.
3000001    1    5    0    0    0  -4.5281243015E+00  -3.1490787059E+01  -6.6702704897E+00   3.2521778667E+01   1.0000000000E+00     0.000  -1.
3000022   2   5   0   0   0   -2.1838789463E+00   -2.3360112807E+01   -1.3978854656E+01   2.7311812007E+01   2.5000000000E-01   4.580262E+00   0.
13    1    7    0    0    0   2.1173255029E+00   1.5291072295E+01  -2.9002772543E+01   3.2855316151E+01   1.0500000000E-01     0.000  -1.
-13    1    7    0    0    0   4.1269762533E+00   2.9242971829E+01  -5.5183889489E+01   6.2589583946E+01   1.0500000000E-01     0.000   1.
13    1    9    0    0    0  -8.7577781749E-01  -8.8425746451E+00  -5.3361864244E+00   1.0365520908E+01   1.0500000000E-01     0.000   1.
-13    1    9    0    0    0  -1.3081011289E+00  -1.4517538161E+01  -8.6426682320E+00   1.6946291099E+01   1.0500000000E-01     0.000  -1.
</event>
<event>
 13   1  9.2978750E-05  1.2500000E+02  7.5467720E-03  1.2380620E-01
   21   -1    0    0  502  501   0.0000000000E+00   0.0000000000E+00   1.3060072457E+02   1.3060072457E+02   0.0000000000E+00     0.000   1.
   21   -1    0    0  501  502   0.0000000000E+00   0.0000000000E+00  -2.9909864688E+01   2.9909864688E+01   0.0000000000E+00     0.000   1.
   25    2    1    2    0    0   0.0000000000E+00   0.0000000000E+00   1.0069085988E+02   1.6051058926E+02   1.2500000000E+02  1.764E-08  -1.
3000002    2    3    0    0    0  -1.4932515006E+01  -5.7541136036E+01   2.9156566815E+01   6.6963181893E+01   1.0000000000E+01  1.232E-10  -1.
3000002    2    3    0    0    0   1.4932515006E+01   5.7541136036E+01   7.1534293065E+01   9.3547407367E+01   1.0000000000E+01  3.251E-10  -1.
3000001    1    4    0    0    0  -6.2588240605E+00  -3.7790854991E+01   2.2260378960E+01   4.4315302899E+01   1.0000000000E+00     0.000   1.
3000022   2   4   0   0   0   -8.6736909458E+00   -1.9750281046E+01   6.8961878549E+00   2.2647878994E+01   2.5000000000E-01   1.451944E+00   0.
3000001    1    5    0    0    0   8.6458389223E+00   2.3794393621E+01   3.7091779537E+01   4.4919080664E+01   1.0000000000E+00     0.000   1.
3000022   2   5   0   0   0   6.2866760840E+00   3.3746742415E+01   3.4442513529E+01   4.8628326704E+01   2.5000000000E-01   3.461977E+00   0.
13    1    7    0    0    0  -2.5429508975E+00  -5.9022300139E+00   2.0600640488E+00   6.7496523829E+00   1.0500000000E-01     0.000   1.
-13    1    7    0    0    0  -6.1307400483E+00  -1.3848051032E+01   4.8361238061E+00   1.5898226611E+01   1.0500000000E-01     0.000  -1.
13    1    9    0    0    0   4.5892018868E+00   2.4427841917E+01   2.4930835988E+01   3.5204230467E+01   1.0500000000E-01     0.000   1.
-13    1    9    0    0    0   1.6974741972E+00   9.3189004978E+00   9.5116775406E+00   1.3424096237E+01   1.0500000000E-01     0.000  -1.
</event>
<event>
 13   1  9.2978750E-05  1.2500000E+02  7.5467720E-03  1.2380620E-01
   21   -1    0    0  502  501   0.0000000000E+00   0.0000000000E+00   3.4611288963E+02   3.4611288963E+02   0.0000000000E+00     0.000  -1.
   21   -1    0    0  501  502   0.0000000000E+00   0.0000000000E+00  -1.1286057575E+01   1.1286057575E+01   0.0000000000E+00     0.000  -1.
   25    2    1    2    0    0   0.0000000000E+00   0.0000000000E+00   3.3482683206E+02   3.5739894721E+02   1.2500000000E+02  5.508E-08  -1.
3000002    2    3    0    0    0  -3.2838871828E+00  -5.0519700257E+01   6.6600008843E+01   8.4253102061E+01   1.0000000000E+01  1.615E-09  -1.
3000002    2    3    0    0    0   3.2838871828E+00   5.0519700257E+01   2.6822682322E+02   2.7314584515E+02   1.0000000000E+01  5.180E-10  -1.
3000001    1    4    0    0    0  -4.8978972180E+00  -4.3780270684E+01   5.2511276414E+01   6.8550241786E+01   1.0000000000E+00     0.000  -1.
3000022   2   4   0   0   0   1.6140100353E+00   -6.7394295728E+00   1.4088732430E+01   1.5702860276E+01   2.5000000000E-01   3.631001E+00   0.
3000001    1    5    0    0    0   1.7593778869E+00   4.2592246813E+01   2.0366642508E+02   2.0808221357E+02   1.0000000000E+00     0.000  -1.
3000022   2   5   0   0   0   1.5245092959E+00   7.9274534437E+00   6.4560398137E+01   6.5063631580E+01   2.5000000000E-01   3.071362E+00   0.
13    1    7    0    0    0   4.7328024206E-01  -2.1937631913E+00   4.5426290048E+00   5.0678490903E+00   1.0500000000E-01     0.000   1.
-13    1    7    0    0    0   1.1407297932E+00  -4.5456663815E+00   9.5461034248E+00   1.0635011185E+01   1.0500000000E-01     0.000  -1.
13    1    9    0    0    0   4.0979737240E-01   2.1596106397E+00   1.7299279540E+01   1.7438691167E+01   1.0500000000E-01     0.000   1.
-13    1    9    0    0    0   1.1147119235E+00   5.7678428040E+00   4.7261118597E+01   4.7624940413E+01   1.0500000000E-01     0.000  -1.
</event>
<event>
 13   1  9.2978750E-05  1.2500000E+02  7.5467720E-03  1.2380620E-01
   21   -1    0    0  502  501   0.0000000000E+00   0.0000000000E+00   3.7809379100E+02   3.7809379100E+02   0.0000000000E+00     0.000   1.
   21   -1    0    0  501  502   0.0000000000E+00   0.0000000000E+00  -1.0331431229E+01   1.0331431229E+01   0.0000000000E+00     0.000   1.
   25    2    1    2    0    0   0.0000000000E+00   0.0000000000E+00   3.6776235978E+02   3.8842522223E+02   1.2500000000E+02  1.079E-08  -1.
3000002    2    3    0    0    0   2.7990693462E+01  -5.4680583108E+01   2.0167900060E+02   2.1106365005E+02   1.0000000000E+01  3.808E-10  -1.
3000002    2    3    0    0    0  -2.7990693462E+01   5.4680583108E+01   1.6608335918E+02   1.7736157218E+02   1.0000000000E+01  9.567E-12  -1.
3000001    1    4    0    0    0   1.9528876756E+01  -3.8674679590E+01   1.2584582756E+02   1.3309876101E+02   1.0000000000E+00     0.000   1.
3000022   2   4   0   0   0   8.4618167064E+00   -1.6005903518E+01   7.5833173041E+01   7.7964889039E+01   2.5000000000E-01   1.664557E+00   0.
3000001    1    5    0    0    0  -2.4283792061E+01   3.7703967374E+01   1.1977754127E+02   1.2790211533E+02   1.0000000000E+00     0.000  -1.
3000022   2   5   0   0   0   -3.7069014010E+00   1.6976615734E+01   4.6305817906E+01   4.9459456848E+01   2.5000000000E-01   7.934542E+00   0.
13    1    7    0    0    0   5.8313003218E+00  -1.0930422959E+01   5.1811760074E+01   5.3272391691E+01   1.0500000000E-01     0.000   1.
-13    1    7    0    0    0   2.6305163847E+00  -5.0754805588E+00   2.4021412967E+01   2.4692497348E+01   1.0500000000E-01     0.000  -1.
13    1    9    0    0    0  -1.3597877035E+00   6.0781074219E+00   1.6736135389E+01   1.7857818041E+01   1.0500000000E-01     0.000  -1.
-13    1    9    0    0    0  -2.3471136975E+00   1.0898508312E+01   2.9569682517E+01   3.1601638807E+01   1.0500000000E-01     0.000   1.
</event>
<event>
 13   1  9.2978750E-05  1.2500000E+02  7.5467720E-03  1.2380620E-01
   21   -1    0    0  502  501   0.0000000000E+00   0.0000000000E+00   1.0465218062E+02   1.0465218062E+02   0.0000000000E+00     0.000  -1.
   21   -1    0    0  501  502   0.0000000000E+00   0.0000000000E+00  -3.7326025858E+01   3.7326025858E+01   0.0000000000E+00     0.000  -1.
   25    2    1    2    0    0   0.0000000000E+00   0.0000000000E+00   6.7326154766E+01   1.4197820648E+02   1.2500000000E+02  1.440E-08  -1.
3000002    2    3    0    0    0   5.8346353856E+01   1.9992252164E+01   3.1954482593E+01   7.0178886517E+01   1.0000000000E+01  4.175E-11   1.
3000002    2    3    0    0    0  -5.8346353856E+01  -1.9992252164E+01   3.5371672173E+01   7.1799319963E+01   1.0000000000E+01  7.954E-10   1.
3000001    1    4    0    0    0   3.4661879387E+01   1.3543354858E+01   1.4029944016E+01   3.9783258696E+01   1.0000000000E+00     0.000   1.
3000022   2   4   0   0   0   2.3684474470E+01   6.4488973060E+00   1.7924538577E+01   3.0395627820E+01   2.5000000000E-01   5.597708E+00   0.
3000001    1    5    0    0    0  -3.8181854586E+01  -1.4615908541E+01   2.8420893203E+01   4.9801867159E+01   1.0000000000E+00     0.000   1.
3000022   2   5   0   0   0   -2.0164499271E+01   -5.3763436231E+00   6.9507789695E+00   2.1997452804E+01   2.5000000000E-01   5.014142E+00   0.
13    1    7    0    0    0   1.6078807583E+01   4.3276889485E+00   1.2178363117E+01   2.0629602472E+01   1.0500000000E-01     0.000   1.
-13    1    7    0    0    0   7.6056668862E+00   2.1212083574E+00   5.7461754601E+00   9.7660253480E+00   1.0500000000E-01     0.000  -1.
13    1    9    0    0    0  -1.2215068546E+01  -3.2274658056E+00   4.1492663785E+00   1.3298566524E+01   1.0500000000E-01     0.000   1.
-13    1    9    0    0    0  -7.9494307246E+00  -2.1488778175E+00   2.8015125911E+00   8.6988862803E+00   1.0500000000E-01     0.000  -1.
</event>
<event>
 13   1  9.2978750E-05  1.2500000E+02  7.5467720E-03  1.2380620E-01
   21   -1    0    0  502  501   0.0000000000E+00   0.0000000000E+00   2.8423588980E+02   2.8423588980E+02   0.0000000000E+00     0.000  -1.
   21   -1    0    0  501  502   0.0000000000E+00   0.0000000000E+00  -1.3742986513E+01   1.3742986513E+01   0.0000000000E+00     0.000  -1.
   25    2    1    2    0    0   0.0000000000E+00   0.0000000000E+00   2.7049290328E+02   2.9797887631E+02   1.2500000000E+02  7.712E-09  -1.
3000002    2    3    0    0    0  -1.7254736853E+01  -5.5475232133E+01   1.8473737137E+02   1.9391524877E+02   1.0000000000E+01  1.956E-10   1.
3000002    2    3    0    0    0   1.7254736853E+01   5.5475232133E+01   8.5755531911E+01   1.0406362754E+02   1.0000000000E+01  2.391E-10   1.
3000001    1    4    0    0    0  -8.4590602265E+00  -2.9538911395E+01   1.1364276417E+02   1.1772757041E+02   1.0000000000E+00     0.000   1.
3000022   2   4   0   0   0   -8.7956766266E+00   -2.5936320737E+01   7.1094607197E+01   7.6187678355E+01   2.5000000000E-01   7.648689E+00   0.
3000001    1    5    0    0    0  -1.3163125036E-01   8.1549105887E+00   8.5713986222E+00   1.1873869118E+01   1.0000000000E+00     0.000   1.
3000022   2   5   0   0   0   1.7386368103E+01   4.7320321544E+01   7.7184133289E+01   9.2189758425E+01   2.5000000000E-01   4.374765E+00   0.
13    1    7    0    0    0  -3.1316783172E+00  -9.3109451804E+00   2.5355789855E+01   2.7192429340E+01   1.0500000000E-01     0.000  -1.
-13    1    7    0    0    0  -5.6639983093E+00  -1.6625375557E+01   4.5738817342E+01   4.8995249015E+01   1.0500000000E-01     0.000   1.
13    1    9    0    0    0   1.2272011266E+01   3.3524091948E+01   5.4673044033E+01   6.5296399367E+01   1.0500000000E-01     0.000  -1.
-13    1    9    0    0    0   5.1143568369E+00   1.3796229596E+01   2.2511089255E+01   2.6893359057E+01   1.0500000000E-01     0.000   1.
</event>
<event>
 13   1  9.2978750E-05  1.2500000E+02  7.5467720E-03  1.2380620E-01
   21   -1    0    0  502  501   0.0000000000E+00   0.0000000000E+00   3.5349112919E+01   3.5349112919E+01   0.0000000000E+00     0.000   1.
   21   -1    0    0  501  502   0.0000000000E+00   0.0000000000E+00  -1.1050489467E+02   1.1050489467E+02   0.0000000000E+00     0.000   1.
   25    2    1    2    0    0   0.0000000000E+00   0.0000000000E+00  -7.5155781755E+01   1.4585400759E+02   1.2500000000E+02  3.750E-08  -1.
3000002    2    3    0    0    0  -5.4250396364E+01   2.0436306547E+01  -6.2206116224E+01   8.5617457487E+01   1.0000000000E+01  1.681E-09  -1.
3000002    2    3    0    0    0   5.4250396364E+01  -2.0436306547E+01  -1.2949665531E+01   6.0236550103E+01   1.0000000000E+01  6.982E-13  -1.
3000001    1    4    0    0    0  -5.1609579803E+01   1.9974301978E+01  -5.5460194248E+01   7.8354033801E+01   1.0000000000E+00     0.000  -1.
3000022   2   4   0   0   0   -2.6408165604E+00   4.6200456948E-01   -6.7459219767E+00   7.2634236861E+00   2.5000000000E-01   4.736060E+00   0.
3000001    1    5    0    0    0   9.7583376966E+00  -4.4293484611E+00  -6.3418384452E+00   1.2492525656E+01   1.0000000000E+00     0.000   1.
3000022   2   5   0   0   0   4.4492058667E+01   -1.6006958086E+01   -6.6078270854E+00   4.7744024447E+01   2.5000000000E-01   2.759565E+00   0.
13    1    7    0    0    0  -1.6157819598E+00   2.7429414938E-01  -3.9518759641E+00   4.2795253543E+00   1.0500000000E-01     0.000  -1.
-13    1    7    0    0    0  -1.0250346006E+00   1.8771042010E-01  -2.7940460126E+00   2.9838983318E+00   1.0500000000E-01     0.000   1.
13    1    9    0    0    0   1.0697616791E+01  -3.8429958733E+00  -1.6076957194E+00   1.1480563262E+01   1.0500000000E-01     0.000   1.
-13    1    9    0    0    0   3.3794441876E+01  -1.2163962213E+01  -5.0001313660E+00   3.6263461184E+01   1.0500000000E-01     0.000  -1.
</event>
<event>
 13   1  9.2978750E-05  1.2500000E+02  7.5467720E-03  1.2380620E-01
   21   -1    0    0  502  501   0.0000000000E+00   0.0000000000E+00   5.9449828634E+00   5.9449828634E+00   0.0000000000E+00     0.000  -1.
   21   -1    0    0  501  502   0.0000000000E+00   0.0000000000E+00  -6.5706665431E+02   6.5706665431E+02   0.0000000000E+00     0.000  -1.
   25    2    1    2    0    0   0.0000000000E+00   0.0000000000E+00  -6.5112167145E+02   6.6301163718E+02   1.2500000000E+02  4.809E-09  -1.
3000002    2    3    0    0    0  -1.8208955959E+01   4.8303477579E+01  -1.4635955795E+02   1.5551820545E+02   1.0000000000E+01  5.096E-10   1.
3000002    2    3    0    0    0   1.8208955959E+01  -4.8303477579E+01  -5.0476211350E+02   5.0749343173E+02   1.0000000000E+01  2.389E-10   1.
3000001    1    4    0    0    0  -1.0271979730E+01   1.4644408690E+01  -4.5890045319E+01   4.9263257432E+01   1.0000000000E+00     0.000   1.
3000022   2   4   0   0   0   -7.9369762287E+00   3.3659068890E+01   -1.0046951263E+02   1.0625494802E+02   2.5000000000E-01   5.248966E+00   0.
3000001    1    5    0    0    0   2.0365437814E+00  -2.2996640412E+00  -1.7364031528E+01   1.7661980528E+01   1.0000000000E+00     0.000  -1.
3000022   2   5   0   0   0   1.6172412177E+01   -4.6003813538E+01   -4.8739808197E+02   4.8983145120E+02   2.5000000000E-01   2.980565E-01   0.
13    1    7    0    0    0  -4.6316758554E+00   1.9367379193E+01  -5.7802417660E+01   6.1136554617E+01   1.0500000000E-01     0.000   1.
-13    1    7    0    0    0  -3.3053003733E+00   1.4291689697E+01  -4.2667094974E+01   4.5118393405E+01   1.0500000000E-01     0.000  -1.
13    1    9    0    0    0   4.8860835278E+00  -1.3922060259E+01  -1.4793686996E+02   1.4867086497E+02   1.0500000000E-01     0.000  -1.
-13    1    9    0    0    0   1.1286328650E+01  -3.2081753279E+01  -3.3946121202E+02   3.4116058623E+02   1.0500000000E-01     0.000   1.
</event>
<event>
 13   1  9.2978750E-05  1.2500000E+02  7.5467720E-03  1.2380620E-01
   21   -1    0    0  502  501   0.0000000000E+00   0.0000000000E+00   1.4208999896E+02   1.4208999896E+02   0.0000000000E+00     0.000   1.
   21   -1    0    0  501  502   0.0000000000E+00   0.0000000000E+00  -2.7491378905E+01   2.7491378905E+01   0.0000000000E+00     0.000   1.
   25    2    1    2    0    0   0.0000000000E+00   0.0000000000E+00   1.1459862005E+02   1.6958137786E+02   1.2500000000E+02  1.720E-07  -1.
3000002    2    3    0    0    0   6.1530194220E+01  -3.9483594817E+00   6.0239100036E+01   8.6777321441E+01   1.0000000000E+01  2.532E-10  -1.
3000002    2    3    0    0    0  -6.1530194220E+01   3.9483594817E+00   5.4359520014E+01   8.2804056419E+01   1.0000000000E+01  2.507E-10  -1.
3000001    1    4    0    0    0   3.9588437200E+01   1.3752778024E-01   3.2905666638E+01   5.1488311010E+01   1.0000000000E+00     0.000   1.
3000022   2   4   0   0   0   2.1941757020E+01   -4.0858872620E+00   2.7333433398E+01   3.5289010431E+01   2.5000000000E-01   8.937321E-01   0.
3000001    1    5    0    0    0  -4.1212000541E+01   1.2938834974E+00   3.0169920223E+01   5.1101146850E+01   1.0000000000E+00     0.000  -1.
3000022   2   5   0   0   0   -2.0318193679E+01   2.6544759843E+00   2.4189599791E+01   3.1702909569E+01   2.5000000000E-01   3.792918E+00   0.
13    1    7    0    0    0   7.2630500935E+00  -1.3148880117E+00   8.9798793658E+00   1.1624546682E+01   1.0500000000E-01     0.000   1.
-13    1    7    0    0    0   1.4678706926E+01  -2.7709992503E+00   1.8353554032E+01   2.3664463748E+01   1.0500000000E-01     0.000  -1.
13    1    9    0    0    0  -1.3776383321E+01   1.8281222158E+00   1.6471146870E+01   2.1550881014E+01   1.0500000000E-01     0.000  -1.
-13    1    9    0    0    0  -6.5418103579E+00   8.2635376853E-01   7.7184529207E+00   1.0152028556E+01   1.0500000000E-01     0.000   1.
</event>
<event>
 13   1  9.2978750E-05  1.2500000E+02  7.5467720E-03  1.2380620E-01
   21   -1    0    0  502  501   0.0000000000E+00   0.0000000000E+00   2.1573580507E+02   2.1573580507E+02   0.0000000000E+00     0.000   1.
   21   -1    0    0  501  502   0.0000000000E+00   0.0000000000E+00  -1.8106637415E+01   1.8106637415E+01   0.0000000000E+00     0.000   1.
   25    2    1    2    0    0   0.0000000000E+00   0.0000000000E+00   1.9762916766E+02   2.3384244249E+02   1.2500000000E+02  3.257E-08  -1.
3000002    2    3    0    0    0  -2.6952124590E+01   4.9400787465E+01   5.1510568808E+01   7.6942793821E+01   1.0000000000E+01  5.728E-10   1.
3000002    2    3    0    0    0   2.6952124590E+01  -4.9400787465E+01   1.4611859885E+02   1.5689964867E+02   1.0000000000E+01  4.007E-10   1.
3000001    1    4    0    0    0  -2.7292147253E+01   4.4353779979E+01   4.6678484421E+01   6.9942833857E+01   1.0000000000E+00     0.000   1.
3000022   2   4   0   0   0   3.4002266323E-01   5.0470074861E+00   4.8320843871E+00   6.9999599642E+00   2.5000000000E-01   4.355756E+00   0.
3000001    1    5    0    0    0   1.9743170868E+01  -3.2591734841E+01   1.0992534965E+02   1.1634687994E+02   1.0000000000E+00     0.000   1.
3000022   2   5   0   0   0   7.2089537214E+00   -1.6809052624E+01   3.6193249200E+01   4.0552768728E+01   2.5000000000E-01   1.287861E+01   0.
13    1    7    0    0    0   2.6864758758E-01   3.1989405477E+00   3.1000872594E+00   4.4639621605E+00   1.0500000000E-01     0.000   1.
-13    1    7    0    0    0   7.1375075653E-02   1.8480669384E+00   1.7319971277E+00   2.5359978038E+00   1.0500000000E-01     0.000  -1.
13    1    9    0    0    0   3.0300789339E+00  -7.1667171778E+00   1.5512086127E+01   1.7354511070E+01   1.0500000000E-01     0.000   1.
-13    1    9    0    0    0   4.1788747875E+00  -9.6423354464E+00   2.0681163073E+01   2.3198257658E+01   1.0500000000E-01     0.000  -1.
</event>
<event>
 13   1  9.2978750E-05  1.2500000E+02  7.5467720E-03  1.2380620E-01
   21   -1    0    0  502  501   0.0000000000E+00   0.0000000000E+00   2.6740897795E+02   2.6740897795E+02   0.0000000000E+00     0.000   1.
   21   -1    0    0  501  502   0.0000000000E+00   0.0000000000E+00  -1.4607774316E+01   1.4607774316E+01   0.0000000000E+00     0.000   1.
   25    2    1    2    0    0   0.0000000000E+00   0.0000000000E+00   2.5280120364E+02   2.8201675227E+02   1.2500000000E+02  4.235E-09  -1.
3000002    2    3    0    0    0  -2.6444597979E+01  -5.5331881886E+01   1.4158826938E+02   1.5462267603E+02   1.0000000000E+01  1.473E-09  -1.
3000002    2    3    0    0    0   2.6444597979E+01   5.5331881886E+01   1.1121293426E+02   1.2739407624E+02   1.0000000000E+01  3.324E-10  -1.
3000001    1    4    0    0    0  -1.9075116902E+01  -3.9029138889E+01   1.1075267977E+02   1.1897180272E+02   1.0000000000E+00     0.000  -1.
3000022   2   4   0   0   0   -7.3694810768E+00   -1.6302742997E+01   3.0835589614E+01   3.5650873305E+01   2.5000000000E-01   2.801806E+00   0.
3000001    1    5    0    0    0   9.5933702209E+00   2.1392195739E+01   5.2621607770E+01   5.7616771820E+01   1.0000000000E+00     0.000  -1.
3000022   2   5   0   0   0   1.6851227758E+01   3.3939686148E+01   5.8591326490E+01   6.9777304423E+01   2.5000000000E-01   9.048851E+00   0.
13    1    7    0    0    0  -2.7083055318E+00  -6.0062348358E+00   1.1238907805E+01   1.3028194403E+01   1.0500000000E-01     0.000  -1.
-13    1    7    0    0    0  -4.6611755451E+00  -1.0296508161E+01   1.9596681809E+01   2.2622678902E+01   1.0500000000E-01     0.000   1.
13    1    9    0    0    0   4.9832558317E+00   9.9433929941E+00   1.7171022841E+01   2.0458713384E+01   1.0500000000E-01     0.000  -1.
-13    1    9    0    0    0   1.1867971927E+01   2.3996293154E+01   4.1420303649E+01   4.9318591040E+01   1.0500000000E-01     0.000   1.
</event>
<event>
 13   1  9.2978750E-05  1.2500000E+02  7.5467720E-03  1.2380620E-01
   21   -1    0    0  502  501   0.0000000000E+00   0.0000000000E+00   3.0352480255E+01   3.0352480255E+01   0.0000000000E+00     0.000  -1.
   21   -1    0    0  501  502   0.0000000000E+00   0.0000000000E+00  -1.2869623725E+02   1.2869623725E+02   0.0000000000E+00     0.000  -1.
   25    2    1    2    0    0   0.0000000000E+00   0.0000000000E+00  -9.8343756996E+01   1.5904871751E+02   1.2500000000E+02  2.454E-08  -1.
3000002    2    3    0    0    0   1.6641304970E+00   4.9075616855E+01  -9.6696350688E+01   1.0890991569E+02   1.0000000000E+01  3.664E-10   1.
3000002    2    3    0    0    0  -1.6641304970E+00  -4.9075616855E+01  -1.6474063079E+00   5.0138801816E+01   1.0000000000E+01  2.075E-10   1.
3000001    1    4    0    0    0   1.5550996917E+00   4.6916861032E+01  -9.5520231945E+01   1.0643648291E+02   1.0000000000E+00     0.000   1.
3000022   2   4   0   0   0   1.0903080537E-01   2.1587558235E+00   -1.1761187432E+00   2.4734327806E+00   2.5000000000E-01   9.586989E-01   0.
3000001    1    5    0    0    0  -4.4927814172E+00  -4.3641033913E+01  -4.1833174888E-01   4.3885076362E+01   1.0000000000E+00     0.000   1.
3000022   2   5   0   0   0   2.8286509202E+00   -5.4345829419E+00   -1.2290745590E+00   6.2537254538E+00   2.5000000000E-01   2.904132E+00   0.
13    1    7    0    0    0   9.9236733279E-02   1.5141688883E+00  -8.6744321831E-01   1.7510105907E+00   1.0500000000E-01     0.000  -1.
-13    1    7    0    0    0   9.7940720914E-03   6.4458693520E-01  -3.0867552489E-01   7.2242218996E-01   1.0500000000E-01     0.000   1.
13    1    9    0    0    0   1.8563385071E+00  -3.6414318289E+00  -7.7801789639E-01   4.1620133667E+00   1.0500000000E-01     0.000   1.
-13    1    9    0    0    0   9.7231241303E-01  -1.7931511130E+00  -4.5105666260E-01   2.0917120871E+00   1.0500000000E-01     0.000  -1.
</event>
<event>
 13   1  9.2978750E-05  1.2500000E+02  7.5467720E-03  1.2380620E-01
   21   -1    0    0  502  501   0.0000000000E+00   0.0000000000E+00   1.3374522445E+01   1.3374522445E+01   0.0000000000E+00     0.000   1.
   21   -1    0    0  501  502   0.0000000000E+00   0.0000000000E+00  -2.9206650301E+02   2.9206650301E+02   0.0000000000E+00     0.000   1.
   25    2    1    2    0    0   0.0000000000E+00   0.0000000000E+00  -2.7869198057E+02   3.0544102546E+02   1.2500000000E+02  5.312E-08  -1.
3000002    2    3    0    0    0  -1.0151182026E+01   5.9734822077E+01  -1.6773244122E+02   1.7862101585E+02   1.0000000000E+01  1.686E-10   1.
3000002    2    3    0    0    0   1.0151182026E+01  -5.9734822077E+01  -1.1095953935E+02   1.2682000961E+02   1.0000000000E+01  1.646E-09   1.
3000001    1    4    0    0    0  -7.5432176117E-01   1.9554043287E+01  -6.5705285537E+01   6.8564671353E+01   1.0000000000E+00     0.000  -1.
3000022   2   4   0   0   0   -9.3968602648E+00   4.0180778790E+01   -1.0202715568E+02   1.1005634449E+02   2.5000000000E-01   5.980631E+00   0.
3000001    1    5    0    0    0   9.8638280182E+00  -2.9785805076E+01  -5.3821353837E+01   6.2307522949E+01   1.0000000000E+00     0.000   1.
3000022   2   5   0   0   0   2.8735400775E-01   -2.9949017001E+01   -5.7138185515E+01   6.4512486664E+01   2.5000000000E-01   1.753939E+00   0.
13    1    7    0    0    0  -4.0370190410E+00   1.7543242148E+01  -4.4466887204E+01   4.7972679209E+01   1.0500000000E-01     0.000  -1.
-13    1    7    0    0    0  -5.3598412239E+00   2.2637536643E+01  -5.7560268477E+01   6.2083665286E+01   1.0500000000E-01     0.000   1.
13    1    9    0    0    0   1.0832927170E-01  -1.0327460198E+01  -1.9822186874E+01   2.2351695390E+01   1.0500000000E-01     0.000   1.
-13    1    9    0    0    0   1.7902473605E-01  -1.9621556804E+01  -3.7315998641E+01   4.2160791274E+01   1.0500000000E-01     0.000  -1.
</event>
<event>
 13   1  9.2978750E-05  1.2500000E+02  7.5467720E-03  1.2380620E-01
   21   -1    0    0  502  501   0.0000000000E+00   0.0000000000E+00   2.7338689501E+01   2.7338689501E+01   0.0000000000E+00     0.000  -1.
   21   -1    0    0  501  502   0.0000000000E+00   0.0000000000E+00  -1.4288358628E+02   1.4288358628E+02   0.0000000000E+00     0.000  -1.
   25    2    1    2    0    0   0.0000000000E+00   0.0000000000E+00  -1.1554489677E+02   1.7022227578E+02   1.2500000000E+02  2.830E-08  -1.
3000002    2    3    0    0    0   1.8839570530E+01  -3.3352712664E+01  -1.2363124604E+02   1.2981532212E+02   1.0000000000E+01  6.259E-11  -1.
3000002    2    3    0    0    0  -1.8839570530E+01   3.3352712664E+01   8.0863492675E+00   4.0406953662E+01   1.0000000000E+01  6.234E-10  -1.
3000001    1    4    0    0    0   8.8272629776E+00  -6.8664028153E+00  -3.2376077364E+01   3.4267746421E+01   1.0000000000E+00     0.000  -1.
3000022   2   4   0   0   0   1.0012307552E+01   -2.6486309849E+01   -9.1255168673E+01   9.5547575697E+01   2.5000000000E-01   1.957483E+00   0.
3000001    1    5    0    0    0  -1.5770997770E+01   2.9719802459E+01   1.0236465590E+01   3.5182044521E+01   1.0000000000E+00     0.000  -1.
3000022   2   5   0   0   0   -3.0685727594E+00   3.6329102043E+00   -2.1501163226E+00   5.2249091411E+00   2.5000000000E-01   4.271458E+00   0.
13    1    7    0    0    0   3.2728525544E+00  -8.8078566750E+00  -3.0267125768E+01   3.1692267674E+01   1.0500000000E-01     0.000   1.
-13    1    7    0    0    0   6.7394549978E+00  -1.7678453173E+01  -6.0988042906E+01   6.3855308023E+01   1.0500000000E-01     0.000  -1.
13    1    9    0    0    0  -1.3862784295E+00   1.5442248832E+00  -9.6092868662E-01   2.2892809602E+00   1.0500000000E-01     0.000   1.
-13    1    9    0    0    0  -1.6822943299E+00   2.0886853212E+00  -1.1891876360E+00   2.9356281809E+00   1.0500000000E-01     0.000  -1.
</event>
<event>
 13   1  9.2978750E-05  1.2500000E+02  7.5467720E-03  1.2380620E-01
   21   -1    0    0  502  501   0.0000000000E+00   0.0000000000E+00   1.2390510624E+02   1.2390510624E+02   0.0000000000E+00     0.000  -1.
   21   -1    0    0  501  502   0.0000000000E+00   0.0000000000E+00  -3.1526142212E+01   3.1526142212E+01   0.0000000000E+00     0.000  -1.
   25    2    1    2    0    0   0.0000000000E+00   0.0000000000E+00   9.2378964024E+01   1.5543124845E+02   1.2500000000E+02  1.110E-08  -1.
3000002    2    3    0    0    0   4.5253558689E+01   4.1327857629E+01   3.7364174243E+01   7.2470393314E+01   1.0000000000E+01  1.199E-10  -1.
3000002    2    3    0    0    0  -4.5253558689E+01  -4.1327857629E+01   5.5014789781E+01   8.2960855136E+01   1.0000000000E+01  1.021E-10  -1.
3000001    1    4    0    0    0   4.1141849394E+01   3.2863718407E+01   3.1088532830E+01   6.1156950812E+01   1.0000000000E+00     0.000  -1.
3000022   2   4   0   0   0   4.1117092946E+00   8.4641392227E+00   6.2756414133E+00   1.1313442502E+01   2.5000000000E-01   6.312848E-02   0.
3000001    1    5    0    0    0  -2.3041175699E+01  -1.8584947474E+01   2.0414648649E+01   3.5972961091E+01   1.0000000000E+00     0.000  -1.
3000022   2   5   0   0   0   -2.2212382990E+01   -2.2742910156E+01   3.4600141132E+01   4.6987894045E+01   2.5000000000E-01   9.818583E+00   0.
13    1    7    0    0    0   2.9591148552E+00   6.1365159536E+00   4.5819659864E+00   8.2108846098E+00   1.0500000000E-01     0.000  -1.
-13    1    7    0    0    0   1.1525944394E+00   2.3276232690E+00   1.6936754270E+00   3.1025578925E+00   1.0500000000E-01     0.000   1.
13    1    9    0    0    0  -1.4956302876E+01  -1.5370905287E+01   2.3390404682E+01   3.1734488829E+01   1.0500000000E-01     0.000  -1.
-13    1    9    0    0    0  -7.2560801137E+00  -7.3720048689E+00   1.1209736450E+01   1.5253405216E+01   1.0500000000E-01     0.000   1.
</event>
<event>
 13   1  9.2978750E-05  1.2500000E+02  7.5467720E-03  1.2380620E-01
   21   -1    0    0  502  501   0.0000000000E+00   0.0000000000E+00   1.5657146763E+02   1.5657146763E+02   0.0000000000E+00     0.000   1.
   21   -1    0    0  501  502   0.0000000000E+00   0.0000000000E+00  -2.4948670783E+01   2.4948670783E+01   0.0000000000E+00     0.000   1.
   25    2    1    2    0    0   0.0000000000E+00   0.0000000000E+00   1.3162279685E+02   1.8152013842E+02   1.2500000000E+02  1.735E-08  -1.
3000002    2    3    0    0    0  -3.5418250130E+01   3.0497278837E+01   1.2429065899E+02   1.3316420079E+02   1.0000000000E+01  3.733E-10  -1.
3000002    2    3    0    0    0   3.5418250130E+01  -3.0497278837E+01   7.3321378581E+00   4.8355937632E+01   1.0000000000E+01  2.390E-10  -1.
3000001    1    4    0    0    0  -3.4836401069E+01   2.8911663799E+01   1.2285179267E+02   1.3093136410E+02   1.0000000000E+00     0.000  -1.
3000022   2   4   0   0   0   -5.8184906158E-01   1.5856150376E+00   1.4388663224E+00   2.2328366872E+00   2.5000000000E-01   1.390137E+01   0.
3000001    1    5    0    0    0   9.5209639814E+00  -4.6286803490E+00   4.7907246833E+00   1.1662953309E+01   1.0000000000E+00     0.000   1.
3000022   2   5   0   0   0   2.5897286149E+01   -2.5868598488E+01   2.5414131749E+00   3.6692984323E+01   2.5000000000E-01   7.165931E+00   0.
13    1    7    0    0    0  -4.2987646367E-01   1.1124748887E+00   1.0616765835E+00   1.6001800899E+00   1.0500000000E-01     0.000  -1.
-13    1    7    0    0    0  -1.5197259791E-01   4.7314014893E-01   3.7718973881E-01   6.3265659730E-01   1.0500000000E-01     0.000   1.
13    1    9    0    0    0   1.5127665669E+01  -1.5133569261E+01   1.5482126373E+00   2.1454117892E+01   1.0500000000E-01     0.000  -1.
-13    1    9    0    0    0   1.0769620480E+01  -1.0735029227E+01   9.9320053762E-01   1.5238866431E+01   1.0500000000E-01     0.000   1.
</event>
<event>
 13   1  9.2978750E-05  1.2500000E+02  7.5467720E-03  1.2380620E-01
   21   -1    0    0  502  501   0.0000000000E+00   0.0000000000E+00   1.1096479543E+01   1.1096479543E+01   0.0000000000E+00     0.000  -1.
   21   -1    0    0  501  502   0.0000000000E+00   0.0000000000E+00  -3.5202606240E+02   3.5202606240E+02   0.0000000000E+00     0.000  -1.
   25    2    1    2    0    0   0.0000000000E+00   0.0000000000E+00  -3.4092958286E+02   3.6312254195E+02   1.2500000000E+02  8.382E-08  -1.
3000002    2    3    0    0    0  -4.2952368576E+01   3.8564875822E+01  -2.3371698682E+02   2.4094768216E+02   1.0000000000E+01  5.595E-10  -1.
3000002    2    3    0    0    0   4.2952368576E+01  -3.8564875822E+01  -1.0721259604E+02   1.2217485979E+02   1.0000000000E+01  5.021E-10  -1.
3000001    1    4    0    0    0  -3.4946686756E+01   2.6157059608E+01  -1.6677248516E+02   1.7239351638E+02   1.0000000000E+00     0.000  -1.
3000022   2   4   0   0   0   -8.0056818200E+00   1.2407816213E+01   -6.6944501654E+01   6.8554165784E+01   2.5000000000E-01   1.415876E+01   0.
3000001    1    5    0    0    0   2.6387534849E+01  -2.4329090459E+01  -5.6306957748E+01   6.6780836538E+01   1.0000000000E+00     0.000  -1.
3000022   2   5   0   0   0   1.6564833727E+01   -1.4235785363E+01   -5.0905638296E+01   5.5394023248E+01   2.5000000000E-01   5.382121E+00   0.
13    1    7    0    0    0  -3.9507710547E+00   6.0177140743E+00  -3.2466611920E+01   3.3255276110E+01   1.0500000000E-01     0.000   1.
-13    1    7    0    0    0  -4.0549107653E+00   6.3901021389E+00  -3.4477889734E+01   3.5298889674E+01   1.0500000000E-01     0.000  -1.
13    1    9    0    0    0   7.5252565727E+00  -6.4519955020E+00  -2.3270158006E+01   2.5293655550E+01   1.0500000000E-01     0.000   1.
-13    1    9    0    0    0   9.0395771542E+00  -7.7837898612E+00  -2.7635480289E+01   3.0100367698E+01   1.0500000000E-01     0.000  -1.
</event>
<event>
 13   1  9.2978750E-05  1.2500000E+02  7.5467720E-03  1.2380620E-01
   21   -1    0    0  502  501   0.0000000000E+00   0.0000000000E+00   5.5503891238E+01   5.5503891238E+01   0.0000000000E+00     0.000   1.
   21   -1    0    0  501  502   0.0000000000E+00   0.0000000000E+00  -7.0377948516E+01   7.0377948516E+01   0.0000000000E+00     0.000   1.
   25    2    1    2    0    0   0.0000000000E+00   0.0000000000E+00  -1.4874057277E+01   1.2588183975E+02   1.2500000000E+02  9.720E-08  -1.
3000002    2    3    0    0    0  -5.4369618850E+01   1.6286493628E+01  -3.1793280870E+01   6.5818827375E+01   1.0000000000E+01  7.926E-10   1.
3000002    2    3    0    0    0   5.4369618850E+01  -1.6286493628E+01   1.6919223593E+01   6.0063012375E+01   1.0000000000E+01  5.210E-10   1.
3000001    1    4    0    0    0  -1.5204791617E+01   8.2189765068E+00  -1.2910793096E+01   2.1596894251E+01   1.0000000000E+00     0.000   1.
3000022   2   4   0   0   0   -3.9164827233E+01   8.0675171211E+00   -1.8882487774E+01   4.4221933124E+01   2.5000000000E-01   2.433983E-01   0.
3000001    1    5    0    0    0   7.8844488948E+00  -4.3561821429E+00  -3.1874731517E-01   9.0687627099E+00   1.0000000000E+00     0.000   1.
3000022   2   5   0   0   0   4.6485169955E+01   -1.1930311485E+01   1.7237970908E+01   5.0994249665E+01   2.5000000000E-01   1.399401E+01   0.
13    1    7    0    0    0  -1.2685612357E+01   2.6164397703E+00  -6.0596008187E+00   1.4300360311E+01   1.0500000000E-01     0.000   1.
-13    1    7    0    0    0  -2.6479214876E+01   5.4510773507E+00  -1.2822886955E+01   2.9921572813E+01   1.0500000000E-01     0.000  -1.
13    1    9    0    0    0   2.8007645021E+01  -7.1237660833E+00   1.0388760058E+01   3.0710154401E+01   1.0500000000E-01     0.000  -1.
-13    1    9    0    0    0   1.8477524934E+01  -4.8065454016E+00   6.8492108505E+00   2.0284095264E+01   1.0500000000E-01     0.000   1.
</event>
<event>
 13   1  9.2978750E-05  1.2500000E+02  7.5467720E-03  1.2380620E-01
   21   -1    0    0  502  501   0.0000000000E+00   0.0000000000E+00   4.9160732187E+02   4.9160732187E+02   0.0000000000E+00     0.000  -1.
   21   -1    0    0  501  502   0.0000000000E+00   0.0000000000E+00  -7.9458743314E+00   7.9458743314E+00   0.0000000000E+00     0.000  -1.
   25    2    1    2    0    0   0.0000000000E+00   0.0000000000E+00   4.8366144754E+02   4.9955319620E+02   1.2500000000E+02  5.673E-08  -1.
3000002    2    3    0    0    0  -2.2740930719E+01  -5.0857446606E+01   1.3589753564E+02   1.4721334858E+02   1.0000000000E+01  4.959E-11  -1.
3000002    2    3    0    0    0   2.2740930719E+01   5.0857446606E+01   3.4776391190E+02   3.5233984762E+02   1.0000000000E+01  1.212E-09  -1.
3000001    1    4    0    0    0  -1.0474471460E+01  -1.2586144595E+01   3.8445652698E+01   4.1799447359E+01   1.0000000000E+00     0.000   1.
3000022   2   4   0   0   0   -1.2266459259E+01   -3.8271302012E+01   9.7451882945E+01   1.0541390122E+02   2.5000000000E-01   4.677494E+00   0.
3000001    1    5    0    0    0   3.7655907567E+00   1.3437908746E+01   6.5766220450E+01   6.7238031035E+01   1.0000000000E+00     0.000   1.
3000022   2   5   0   0   0   1.8975339963E+01   3.7419537860E+01   2.8199769145E+02   2.8510181659E+02   2.5000000000E-01   1.209276E+01   0.
13    1    7    0    0    0  -3.7882861625E+00  -1.1879631426E+01   3.0118395387E+01   3.2597630597E+01   1.0500000000E-01     0.000  -1.
-13    1    7    0    0    0  -8.4781730966E+00  -2.6391670585E+01   6.7333487558E+01   7.2816270620E+01   1.0500000000E-01     0.000   1.
13    1    9    0    0    0   1.2778658463E+01   2.5265398086E+01   1.9001096072E+02   1.9210885110E+02   1.0500000000E-01     0.000  -1.
-13    1    9    0    0    0   6.1966814998E+00   1.2154139775E+01   9.1986730723E+01   9.2992965483E+01   1.0500000000E-01     0.000   1.
</event>
<event>
 13   1  9.2978750E-05  1.2500000E+02  7.5467720E-03  1.2380620E-01
   21   -1    0    0  502  501   0.0000000000E+00   0.0000000000E+00   2.4351715787E+01   2.4351715787E+01   0.0000000000E+00     0.000  -1.
   21   -1    0    0  501  502   0.0000000000E+00   0.0000000000E+00  -1.6040964153E+02   1.6040964153E+02   0.0000000000E+00     0.000  -1.
   25    2    1    2    0    0   0.0000000000E+00   0.0000000000E+00  -1.3605792574E+02   1.8476135732E+02   1.2500000000E+02  9.014E-09  -1.
3000002    2    3    0    0    0  -8.1832551394E+00  -5.2982559105E+01  -1.1315633230E+02   1.2561239101E+02   1.0000000000E+01  6.017E-11   1.
3000002    2    3    0    0    0   8.1832551394E+00   5.2982559105E+01  -2.2901593436E+01   5.9148966313E+01   1.0000000000E+01  2.165E-09   1.
3000001    1    4    0    0    0  -8.4911350305E+00  -4.9109874004E+01  -9.7811675168E+01   1.0978161457E+02   1.0000000000E+00     0.000   1.
3000022   2   4   0   0   0   3.0787989108E-01   -3.8726851006E+00   -1.5344657136E+01   1.5830776436E+01   2.5000000000E-01   1.166413E+01   0.
3000001    1    5    0    0    0   2.5682430810E-01   1.9179524606E+01  -1.2449330115E+01   2.2888991746E+01   1.0000000000E+00     0.000   1.
3000022   2   5   0   0   0   7.9264308313E+00   3.3803034498E+01   -1.0452263320E+01   3.6259974566E+01   2.5000000000E-01   9.490855E-01   0.
13    1    7    0    0    0   2.1757403435E-01  -1.8846451400E+00  -7.5119661869E+00   7.7485409437E+00   1.0500000000E-01     0.000   1.
-13    1    7    0    0    0   9.0305856727E-02  -1.9880399606E+00  -7.8326909496E+00   8.0822354918E+00   1.0500000000E-01     0.000  -1.
13    1    9    0    0    0   2.1656535565E+00   9.1785319562E+00  -2.8034193042E+00   9.8389882098E+00   1.0500000000E-01     0.000  -1.
-13    1    9    0    0    0   5.7607772747E+00   2.4624502542E+01  -7.6488440161E+00   2.6420986356E+01   1.0500000000E-01     0.000   1.
</event>
<event>
 13   1  9.2978750E-05  1.2500000E+02  7.5467720E-03  1.2380620E-01
   21   -1    0    0  502  501   0.0000000000E+00   0.0000000000E+00   8.3276566276E+01   8.3276566276E+01   0.0000000000E+00     0.000  -1.
   21   -1    0    0  501  502   0.0000000000E+00   0.0000000000E+00  -4.6906953236E+01   4.6906953236E+01   0.0000000000E+00     0.000  -1.
   25    2    1    2    0    0   0.0000000000E+00   0.0000000000E+00   3.6369613040E+01   1.3018351951E+02   1.2500000000E+02  8.562E-08  -1.
3000002    2    3    0    0    0  -8.3233281812E-01  -1.9848265955E+01   7.9015851219E+01   8.2086242350E+01   1.0000000000E+01  1.806E-10  -1.
3000002    2    3    0    0    0   8.3233281812E-01   1.9848265955E+01  -4.2646238179E+01   4.8097277160E+01   1.0000000000E+01  3.117E-10  -1.
3000001    1    4    0    0    0   4.5006340064E+00  -8.0897758114E+00   3.4629641741E+01   3.5859618880E+01   1.0000000000E+00     0.000  -1.
3000022   2   4   0   0   0   -5.3329668245E+00   -1.1758490144E+01   4.4386209478E+01   4.6226623470E+01   2.5000000000E-01   1.691916E+00   0.
3000001    1    5    0    0    0  -5.6547854583E-02  -8.1507014776E-01  -4.7657682071E+00   4.9376192248E+00   1.0000000000E+00     0.000   1.
3000022   2   5   0   0   0   8.8888067270E-01   2.0663336103E+01   -3.7880469972E+01   4.3159657935E+01   2.5000000000E-01   1.576998E+01   0.
13    1    7    0    0    0  -2.6174666413E+00  -5.6474570221E+00   2.1556950879E+01   2.2437871081E+01   1.0500000000E-01     0.000  -1.
-13    1    7    0    0    0  -2.7155001832E+00  -6.1110331219E+00   2.2829258599E+01   2.3788752389E+01   1.0500000000E-01     0.000   1.
13    1    9    0    0    0   2.0230630369E-01   4.8943745253E+00  -8.9434201597E+00   1.0197628106E+01   1.0500000000E-01     0.000  -1.
-13    1    9    0    0    0   6.8657436901E-01   1.5768961578E+01  -2.8937049812E+01   3.2962029829E+01   1.0500000000E-01     0.000   1.
</event>
<event>
 13   1  9.2978750E-05  1.2500000E+02  7.5467720E-03  1.2380620E-01
   21   -1    0    0  502  501   0.0000000000E+00   0.0000000000E+00   6.9215157368E+01   6.9215157368E+01   0.0000000000E+00     0.000  -1.
   21   -1    0    0  501  502   0.0000000000E+00   0.0000000000E+00  -5.6436337769E+01   5.6436337769E+01   0.0000000000E+00     0.000  -1.
   25    2    1    2    0    0   0.0000000000E+00   0.0000000000E+00   1.2778819599E+01   1.2565149514E+02   1.2500000000E+02  5.811E-08  -1.
3000002    2    3    0    0    0   5.9705606478E+01  -4.3579529817E+00  -8.6047275634E+00   6.1300836337E+01   1.0000000000E+01  1.399E-10   1.
3000002    2    3    0    0    0  -5.9705606478E+01   4.3579529817E+00   2.1383547162E+01   6.4350658803E+01   1.0000000000E+01  3.838E-10   1.
3000001    1    4    0    0    0   3.0501511062E+01   1.9108885162E+00  -1.5964628452E+00   3.0619313605E+01   1.0000000000E+00     0.000   1.
3000022   2   4   0   0   0   2.9204095416E+01   -6.2688414979E+00   -7.0082647183E+00   3.0681522732E+01   2.5000000000E-01   2.938294E+00   0.
3000001    1    5    0    0    0  -4.5615493155E+01   2.2603951618E+00   2.0512737521E+01   5.0076491518E+01   1.0000000000E+00     0.000   1.
3000022   2   5   0   0   0   -1.4090113323E+01   2.0975578199E+00   8.7080964121E-01   1.4274167286E+01   2.5000000000E-01   6.625880E+00   0.
13    1    7    0    0    0   7.7306647233E+00  -1.6841073769E+00  -1.8808805940E+00   8.1331501603E+00   1.0500000000E-01     0.000  -1.
-13    1    7    0    0    0   2.1473430693E+01  -4.5847341210E+00  -5.1273841242E+00   2.2548372572E+01   1.0500000000E-01     0.000   1.
13    1    9    0    0    0  -1.0248715973E+01   1.4890365555E+00   6.2488883724E-01   1.0375688894E+01   1.0500000000E-01     0.000   1.
-13    1    9    0    0    0  -3.8413973502E+00   6.0852126437E-01   2.4592080397E-01   3.8984783920E+00   1.0500000000E-01     0.000  -1.
</event>
<event>
 13   1  9.2978750E-05  1.2500000E+02  7.5467720E-03  1.2380620E-01
   21   -1    0    0  502  501   0.0000000000E+00   0.0000000000E+00   5.4899208258E+01   5.4899208258E+01   0.0000000000E+00     0.000  -1.
   21   -1    0    0  501  502   0.0000000000E+00   0.0000000000E+00  -7.1153120854E+01   7.1153120854E+01   0.0000000000E+00     0.000  -1.
   25    2    1    2    0    0   0.0000000000E+00   0.0000000000E+00  -1.6253912596E+01   1.2605232911E+02   1.2500000000E+02  6.184E-08  -1.
3000002    2    3    0    0    0  -3.2263169544E+01   4.7858040180E+01  -3.0103678801E+01   6.5859969604E+01   1.0000000000E+01  2.249E-10   1.
3000002    2    3    0    0    0   3.2263169544E+01  -4.7858040180E+01   1.3849766205E+01   6.0192359506E+01   1.0000000000E+01  5.236E-10   1.
3000001    1    4    0    0    0  -9.3446227844E+00   8.9099457371E+00  -1.0175188426E+01   1.6469473809E+01   1.0000000000E+00     0.000   1.
3000022   2   4   0   0   0   -2.2918546760E+01   3.8948094443E+01   -1.9928490374E+01   4.9390495796E+01   2.5000000000E-01   1.816813E-01   0.
3000001    1    5    0    0    0   3.9591957155E-01  -5.1952776392E-01   1.2949611229E+00   1.7616996664E+00   1.0000000000E+00     0.000  -1.
3000022   2   5   0   0   0   3.1867249973E+01   -4.7338512416E+01   1.2554805082E+01   5.8430659839E+01   2.5000000000E-01   3.515140E-01   0.
13    1    7    0    0    0  -9.2210640732E+00   1.5644152052E+01  -7.9405715090E+00   1.9819970156E+01   1.0500000000E-01     0.000   1.
-13    1    7    0    0    0  -1.3697482686E+01   2.3303942391E+01  -1.1987918865E+01   2.9570525640E+01   1.0500000000E-01     0.000  -1.
13    1    9    0    0    0   1.2130361917E+01  -1.8114616252E+01   4.8273166024E+00   2.2329330774E+01   1.0500000000E-01     0.000   1.
-13    1    9    0    0    0   1.9736888055E+01  -2.9223896164E+01   7.7274884795E+00   3.6101329066E+01   1.0500000000E-01     0.000  -1.
</event>
<event>
 13   1  9.2978750E-05  1.2500000E+02  7.5467720E-03  1.2380620E-01
   21   -1    0    0  502  501   0.0000000000E+00   0.0000000000E+00   4.7479078826E+01   4.7479078826E+01   0.0000000000E+00     0.000  -1.
   21   -1    0    0  501  502   0.0000000000E+00   0.0000000000E+00  -8.2273078934E+01   8.2273078934E+01   0.0000000000E+00     0.000  -1.
   25    2    1    2    0    0   0.0000000000E+00   0.0000000000E+00  -3.4794000108E+01   1.2975215776E+02   1.2500000000E+02  3.266E-08  -1.
3000002    2    3    0    0    0  -4.6793953517E+01   1.0011912982E+01   2.3023577565E+01   5.4037002241E+01   1.0000000000E+01  1.270E-09   1.
3000002    2    3    0    0    0   4.6793953517E+01  -1.0011912982E+01  -5.7817577673E+01   7.5715155519E+01   1.0000000000E+01  3.368E-10   1.
3000001    1    4    0    0    0  -3.8305719536E+01   1.0832709933E+01   1.5737133900E+01   4.2817439637E+01   1.0000000000E+00     0.000   1.
3000022   2   4   0   0   0   -8.4882339811E+00   -8.2079695127E-01   7.2864436643E+00   1.1219562604E+01   2.5000000000E-01   2.937938E+00   0.
3000001    1    5    0    0    0   4.2486052592E+01  -1.1962446495E+01  -5.2410902636E+01   6.8527859343E+01   1.0000000000E+00     0.000   1.
3000022   2   5   0   0   0   4.3079009253E+00   1.9505335137E+00   -5.4066750370E+00   7.1872961763E+00   2.5000000000E-01   2.437295E+00   0.
13    1    7    0    0    0  -3.3126286319E+00  -3.5284828611E-01   2.9166255253E+00   4.4289659991E+00   1.0500000000E-01     0.000  -1.
-13    1    7    0    0    0  -5.1756053491E+00  -4.6794866515E-01   4.3698181390E+00   6.7905966049E+00   1.0500000000E-01     0.000   1.
13    1    9    0    0    0   1.5959063190E+00   7.3238492363E-01  -1.9198729656E+00   2.6038897556E+00   1.0500000000E-01     0.000   1.
-13    1    9    0    0    0   2.7119946063E+00   1.2181485901E+00  -3.4868020714E+00   4.5834064207E+00   1.0500000000E-01     0.000  -1.
</event>
<event>
 13   1  9.2978750E-05  1.2500000E+02  7.5467720E-03  1.2380620E-01
   21   -1    0    0  502  501   0.0000000000E+00   0.0000000000E+00   1.4800239202E+02   1.4800239202E+02   0.0000000000E+00     0.000   1.
   21   -1    0    0  501  502   0.0000000000E+00   0.0000000000E+00  -2.6393154507E+01   2.6393154507E+01   0.0000000000E+00     0.000   1.
   25    2    1    2    0    0   0.0000000000E+00   0.0000000000E+00   1.2160923752E+02   1.7439554653E+02   1.2500000000E+02  3.223E-08  -1.
3000002    2    3    0    0    0  -5.1079748350E+00  -1.9768952879E+01  -2.0419199311E+01   3.0558903864E+01   1.0000000000E+01  8.029E-11  -1.
3000002    2    3    0    0    0   5.1079748350E+00   1.9768952879E+01   1.4202843683E+02   1.4383664267E+02   1.0000000000E+01  2.367E-10  -1.
3000001    1    4    0    0    0  -1.3092763919E+00  -2.3574426764E+00  -8.8617486139E+00   9.3167767570E+00   1.0000000000E+00     0.000   1.
3000022   2   4   0   0   0   -3.7986984431E+00   -1.7411510203E+01   -1.1557450697E+01   2.1242127107E+01   2.5000000000E-01   1.754640E+01   0.
3000001    1    5    0    0    0  -2.6224282091E+00   5.2334354724E+00   4.9464357883E+01   4.9819561192E+01   1.0000000000E+00     0.000  -1.
3000022   2   5   0   0   0   7.7304030441E+00   1.4535517407E+01   9.2564078947E+01   9.4017081474E+01   2.5000000000E-01   1.326967E+00   0.
13    1    7    0    0    0  -1.4865178162E+00  -6.5520526992E+00  -4.3852049865E+00   8.0237259153E+00   1.0500000000E-01     0.000  -1.
-13    1    7    0    0    0  -2.3121806269E+00  -1.0859457504E+01  -7.1722457104E+00   1.3218401192E+01   1.0500000000E-01     0.000   1.
13    1    9    0    0    0   4.1774700102E+00   7.7645885650E+00   4.9274077072E+01   5.0056825584E+01   1.0500000000E-01     0.000  -1.
-13    1    9    0    0    0   3.5529330340E+00   6.7709288421E+00   4.3290001875E+01   4.3960255890E+01   1.0500000000E-01     0.000   1.
</event>
<event>
 13   1  9.2978750E-05  1.2500000E+02  7.5467720E-03  1.2380620E-01
   21   -1    0    0  502  501   0.0000000000E+00   0.0000000000E+00   2.2824644018E+02   2.2824644018E+02   0.0000000000E+00     0.000  -1.
   21   -1    0    0  501  502   0.0000000000E+00   0.0000000000E+00  -1.7114177101E+01   1.7114177101E+01   0.0000000000E+00     0.000  -1.
   25    2    1    2    0    0   0.0000000000E+00   0.0000000000E+00   2.1113226308E+02   2.4536061728E+02   1.2500000000E+02  6.247E-09  -1.
3000002    2    3    0    0    0   1.4886146805E+01   2.4727471077E+01  -1.4642948888E+00   3.0580865784E+01   1.0000000000E+01  2.288E-09  -1.
3000002    2    3    0    0    0  -1.4886146805E+01  -2.4727471077E+01   2.1259655797E+02   2.1477975150E+02   1.0000000000E+01  1.522E-10  -1.
3000001    1    4    0    0    0   1.4658319743E+01   2.5555830386E+01  -1.9860997750E+00   2.9545073984E+01   1.0000000000E+00     0.000   1.
3000022   2   4   0   0   0   2.2782706132E-01   -8.2835930835E-01   5.2180488620E-01   1.0357918000E+00   2.5000000000E-01   8.274669E+00   0.
3000001    1    5    0    0    0  -1.4670625311E-01  -3.2409487535E+00   4.9351263826E+01   4.9467893757E+01   1.0000000000E+00     0.000   1.
3000022   2   5   0   0   0   -1.4739440552E+01   -2.1486522324E+01   1.6324529414E+02   1.6531185774E+02   2.5000000000E-01   5.428072E+00   0.
13    1    7    0    0    0   5.2549749709E-02  -1.7956148227E-01   1.2467438993E-01   2.4813807772E-01   1.0500000000E-01     0.000   1.
-13    1    7    0    0    0   1.7527731161E-01  -6.4879782607E-01   3.9713049627E-01   7.8765372223E-01   1.0500000000E-01     0.000  -1.
13    1    9    0    0    0  -5.3418923286E+00  -7.8026170395E+00   5.9612592211E+01   6.0358005446E+01   1.0500000000E-01     0.000  -1.
-13    1    9    0    0    0  -9.3975482230E+00  -1.3683905284E+01   1.0363270193E+02   1.0495385229E+02   1.0500000000E-01     0.000   1.
</event>
<event>
 13   1  9.2978750E-05  1.2500000E+02  7.5467720E-03  1.2380620E-01
   21   -1    0    0  502  501   0.0000000000E+00   0.0000000000E+00   6.1492457408E+00   6.1492457408E+00   0.0000000000E+00     0.000  -1.
   21   -1    0    0  501  502   0.0000000000E+00   0.0000000000E+00  -6.3524050992E+02   6.3524050992E+02   0.0000000000E+00     0.000  -1.
   25    2    1    2    0    0   0.0000000000E+00   0.0000000000E+00  -6.2909126417E+02   6.4138975566E+02   1.2500000000E+02  2.971E-07  -1.
3000002    2    3    0    0    0   3.7467422696E+01   4.2204706779E+01  -4.4243353471E+02   4.4613056124E+02   1.0000000000E+01  2.761E-10   1.
3000002    2    3    0    0    0  -3.7467422696E+01  -4.2204706779E+01  -1.8665772946E+02   1.9525919442E+02   1.0000000000E+01  5.727E-10   1.
3000001    1    4    0    0    0   2.7537920684E+01   3.5352028200E+01  -3.6895813798E+02   3.7167083630E+02   1.0000000000E+00     0.000   1.
3000022   2   4   0   0   0   9.9295020120E+00   6.8526785786E+00   -7.3475396727E+01   7.4459724940E+01   2.5000000000E-01   5.674561E+00   0.
3000001    1    5    0    0    0  -7.6236247645E+00  -6.5063179310E+00  -2.2859584044E+01   2.4980240396E+01   1.0000000000E+00     0.000  -1.
3000022   2   5   0   0   0   -2.9843797932E+01   -3.5698388848E+01   -1.6379814542E+02   1.7027895402E+02   2.5000000000E-01   6.454436E+00   0.
13    1    7    0    0    0   4.6080958033E+00   3.2208073592E+00  -3.4600462256E+01   3.5054402867E+01   1.0500000000E-01     0.000  -1.
-13    1    7    0    0    0   5.3214062087E+00   3.6318712194E+00  -3.8874934471E+01   3.9405322073E+01   1.0500000000E-01     0.000   1.
13    1    9    0    0    0  -9.5763315333E+00  -1.1529119089E+01  -5.2691540435E+01   5.4781713838E+01   1.0500000000E-01     0.000   1.
-13    1    9    0    0    0  -2.0267466398E+01  -2.4169269759E+01  -1.1110660498E+02   1.1549724019E+02   1.0500000000E-01     0.000  -1.
</event>
<event>
 13   1  9.2978750E-05  1.2500000E+02  7.5467720E-03  1.2380620E-01
   21   -1    0    0  502  501   0.0000000000E+00   0.0000000000E+00   2.4220714822E+01   2.4220714822E+01   0.0000000000E+00     0.000  -1.
   21   -1    0    0  501  502   0.0000000000E+00   0.0000000000E+00  -1.6127723846E+02   1.6127723846E+02   0.0000000000E+00     0.000  -1.
   25    2    1    2    0    0   0.0000000000E+00   0.0000000000E+00  -1.3705652364E+02   1.8549795328E+02   1.2500000000E+02  8.609E-09  -1.
3000002    2    3    0    0    0  -2.8821535943E+01   5.3448690704E+01  -5.2353076670E+01   8.0797822427E+01   1.0000000000E+01  1.062E-09   1.
3000002    2    3    0    0    0   2.8821535943E+01  -5.3448690704E+01  -8.4703446970E+01   1.0470013085E+02   1.0000000000E+01  4.141E-10   1.
3000001    1    4    0    0    0  -2.3280303379E+01   4.7807080847E+01  -4.2000675225E+01   6.7768327587E+01   1.0000000000E+00     0.000   1.
3000022   2   4   0   0   0   -5.5412325645E+00   5.6416098566E+00   -1.0352401445E+01   1.3029494840E+01   2.5000000000E-01   2.882602E+00   0.
3000001    1    5    0    0    0   1.3863297199E+01  -3.4655918340E+01  -4.7557104022E+01   6.0464054017E+01   1.0000000000E+00     0.000   1.
3000022   2   5   0   0   0   1.4958238744E+01   -1.8792772364E+01   -3.7146342948E+01   4.4236076836E+01   2.5000000000E-01   4.083856E-01   0.
13    1    7    0    0    0  -2.8141200536E+00   2.9279905576E+00  -5.2313605463E+00   6.6234853776E+00   1.0500000000E-01     0.000   1.
-13    1    7    0    0    0  -2.7271125109E+00   2.7136192990E+00  -5.1210408987E+00   6.4060094625E+00   1.0500000000E-01     0.000  -1.
13    1    9    0    0    0   7.4041713139E+00  -9.2057657402E+00  -1.8212500455E+01   2.1708847817E+01   1.0500000000E-01     0.000  -1.
-13    1    9    0    0    0   7.5540674299E+00  -9.5870066236E+00  -1.8933842493E+01   2.2527229019E+01   1.0500000000E-01     0.000   1.
</event>
<event>
 13   1  9.2978750E-05  1.2500000E+02  7.5467720E-03  1.2380620E-01
   21   -1    0    0  502  501   0.0000000000E+00   0.0000000000E+00   1.1822354415E+02   1.1822354415E+02   0.0000000000E+00     0.000   1.
   21   -1    0    0  501  502   0.0000000000E+00   0.0000000000E+00  -3.3041218889E+01   3.3041218889E+01   0.0000000000E+00     0.000   1.
   25    2    1    2    0    0   0.0000000000E+00   0.0000000000E+00   8.5182325258E+01   1.5126476304E+02   1.2500000000E+02  1.317E-08  -1.
3000002    2    3    0    0    0  -1.9310316522E+01   2.1827000598E+01  -2.3212381912E+01   3.8576170797E+01   1.0000000000E+01  1.089E-09  -1.
3000002    2    3    0    0    0   1.9310316522E+01  -2.1827000598E+01   1.0839470717E+02   1.1268859224E+02   1.0000000000E+01  3.295E-10  -1.
3000001    1    4    0    0    0  -1.6115241139E+01   2.2340344691E+01  -2.0681475669E+01   3.4460345815E+01   1.0000000000E+00     0.000  -1.
3000022   2   4   0   0   0   -3.1950753837E+00   -5.1334409291E-01   -2.5309062433E+00   4.1158249814E+00   2.5000000000E-01   9.344117E+00   0.
3000001    1    5    0    0    0   2.9124509411E+00   3.6406032949E-01   8.3056133578E+00   8.8655582823E+00   1.0000000000E+00     0.000   1.
3000022   2   5   0   0   0   1.6397865581E+01   -2.2191060927E+01   1.0008909381E+02   1.0382303396E+02   2.5000000000E-01   4.415435E+00   0.
13    1    7    0    0    0  -1.1742654264E+00  -2.4824742734E-01  -9.2704345387E-01   1.5201844106E+00   1.0500000000E-01     0.000  -1.
-13    1    7    0    0    0  -2.0208099573E+00  -2.6509666558E-01  -1.6038627895E+00   2.5956405708E+00   1.0500000000E-01     0.000   1.
13    1    9    0    0    0   4.8987816649E+00  -6.6431527400E+00   3.0111490864E+01   3.1222467026E+01   1.0500000000E-01     0.000  -1.
-13    1    9    0    0    0   1.1499083916E+01  -1.5547908188E+01   6.9977602949E+01   7.2600566936E+01   1.0500000000E-01     0.000   1.
</event>
<event>
 13   1  9.2978750E-05  1.2500000E+02  7.5467720E-03  1.2380620E-01
   21   -1    0    0  502  501   0.0000000000E+00   0.0000000000E+00   1.4027018244E+02   1.4027018244E+02   0.0000000000E+00     0.000  -1.
   21   -1    0    0  501  502   0.0000000000E+00   0.0000000000E+00  -2.7848042485E+01   2.7848042485E+01   0.0000000000E+00     0.000  -1.
   25    2    1    2    0    0   0.0000000000E+00   0.0000000000E+00   1.1242213996E+02   1.6811822493E+02   1.2500000000E+02  1.540E-08  -1.
3000002    2    3    0    0    0   2.3327601178E+00   5.3508723758E+00   1.3881501318E+02   1.3929709792E+02   1.0000000000E+01  2.257E-09   1.
3000002    2    3    0    0    0  -2.3327601178E+00  -5.3508723758E+00  -2.6392873223E+01   2.8821127006E+01   1.0000000000E+01  1.856E-10   1.
3000001    1    4    0    0    0  -9.0071483140E-02   1.0411710960E+00   1.1313760780E+02   1.1314685347E+02   1.0000000000E+00     0.000   1.
3000022   2   4   0   0   0   2.4228316009E+00   4.3097012797E+00   2.5677405380E+01   2.6150244457E+01   2.5000000000E-01   6.218878E+00   0.
3000001    1    5    0    0    0  -1.8566339494E+00  -2.6280226344E+00  -1.3579928733E+00   3.6328690085E+00   1.0000000000E+00     0.000  -1.
3000022   2   5   0   0   0   -4.7612616840E-01   -2.7228497414E+00   -2.5034880350E+01   2.5188257998E+01   2.5000000000E-01   3.147245E+00   0.
13    1    7    0    0    0   9.8921504822E-01   1.6807514054E+00   1.0393142512E+01   1.0575060660E+01   1.0500000000E-01     0.000   1.
-13    1    7    0    0    0   1.4336165527E+00   2.6289498743E+00   1.5284262869E+01   1.5575183797E+01   1.0500000000E-01     0.000  -1.
13    1    9    0    0    0  -1.4075700158E-01  -6.9720913470E-01  -6.2664404557E+00   6.3075521477E+00   1.0500000000E-01     0.000   1.
-13    1    9    0    0    0  -3.3536916682E-01  -2.0256406067E+00  -1.8768439894E+01   1.8880705850E+01   1.0500000000E-01     0.000  -1.
</event>
<event>
 13   1  9.2978750E-05  1.2500000E+02  7.5467720E-03  1.2380620E-01
   21   -1    0    0  502  501   0.0000000000E+00   0.0000000000E+00   6.0723673168E+01   6.0723673168E+01   0.0000000000E+00     0.000  -1.
   21   -1    0    0  501  502   0.0000000000E+00   0.0000000000E+00  -6.4328289054E+01   6.4328289054E+01   0.0000000000E+00     0.000  -1.
   25    2    1    2    0    0   0.0000000000E+00   0.0000000000E+00  -3.6046158856E+00   1.2505196222E+02   1.2500000000E+02  1.565E-08  -1.
3000002    2    3    0    0    0  -3.7787503475E+01  -4.8644159496E+01   1.6776906522E+00   6.2425670343E+01   1.0000000000E+01  1.342E-10   1.
3000002    2    3    0    0    0   3.7787503475E+01   4.8644159496E+01  -5.2823065378E+00   6.2626291877E+01   1.0000000000E+01  1.088E-09   1.
3000001    1    4    0    0    0  -6.0438526057E+00  -3.2278838661E+00  -7.2850302813E-01   6.9626220086E+00   1.0000000000E+00     0.000  -1.
3000022   2   4   0   0   0   -3.1743650869E+01   -4.5416275630E+01   2.4061936803E+00   5.5463048335E+01   2.5000000000E-01   2.388725E-01   0.
3000001    1    5    0    0    0   3.6288474936E+01   4.1889299008E+01  -5.4704903949E+00   5.5700027376E+01   1.0000000000E+00     0.000   1.
3000022   2   5   0   0   0   1.4990285388E+00   6.7548604879E+00   1.8818385707E-01   6.9262645009E+00   2.5000000000E-01   6.795667E+00   0.
13    1    7    0    0    0  -1.2944964296E+01  -1.8434234255E+01   1.0182652489E+00   2.2548635930E+01   1.0500000000E-01     0.000  -1.
-13    1    7    0    0    0  -1.8798686573E+01  -2.6982041375E+01   1.3879284314E+00   3.2914412404E+01   1.0500000000E-01     0.000   1.
13    1    9    0    0    0   8.1172306565E-01   3.9506096990E+00   1.2175976251E-01   4.0363426228E+00   1.0500000000E-01     0.000   1.
-13    1    9    0    0    0   6.8730547317E-01   2.8042507889E+00   6.6424094557E-02   2.8899218780E+00   1.0500000000E-01     0.000  -1.
</event>
<event>
 13   1  9.2978750E-05  1.2500000E+02  7.5467720E-03  1.2380620E-01
   21   -1    0    0  502  501   0.0000000000E+00   0.0000000000E+00   1.2828045707E+02   1.2828045707E+02   0.0000000000E+00     0.000   1.
   21   -1    0    0  501  502   0.0000000000E+00   0.0000000000E+00  -3.0450858138E+01   3.0450858138E+01   0.0000000000E+00     0.000   1.
   25    2    1    2    0    0   0.0000000000E+00   0.0000000000E+00   9.7829598928E+01   1.5873131520E+02   1.2500000000E+02  1.196E-07  -1.
3000002    2    3    0    0    0  -3.8904080737E+01  -4.7766251267E+01   4.4682606273E+01   7.6757263901E+01   1.0000000000E+01  7.513E-11  -1.
3000002    2    3    0    0    0   3.8904080737E+01   4.7766251267E+01   5.3146992655E+01   8.1974051299E+01   1.0000000000E+01  9.366E-11  -1.
3000001    1    4    0    0    0  -4.6595783407E+00  -5.0944661796E+00   9.1967028401E+00   1.1543162439E+01   1.0000000000E+00     0.000   1.
3000022   2   4   0   0   0   -3.4244502397E+01   -4.2671785088E+01   3.5485903433E+01   6.5214101462E+01   2.5000000000E-01   6.869191E+00   0.
3000001    1    5    0    0    0   1.2014995277E+00   1.0103087837E+00   3.8276919704E+00   4.2562366915E+00   1.0000000000E+00     0.000   1.
3000022   2   5   0   0   0   3.7702581210E+01   4.6755942484E+01   4.9319300684E+01   7.7717814608E+01   2.5000000000E-01   9.391610E+00   0.
13    1    7    0    0    0  -2.2850797698E+01  -2.8558804253E+01   2.3716405327E+01   4.3591778611E+01   1.0500000000E-01     0.000   1.
-13    1    7    0    0    0  -1.1393704699E+01  -1.4112980834E+01   1.1769498106E+01   2.1622322850E+01   1.0500000000E-01     0.000  -1.
13    1    9    0    0    0   1.8497850738E+01   2.2842472002E+01   2.4173384882E+01   3.8056702047E+01   1.0500000000E-01     0.000  -1.
-13    1    9    0    0    0   1.9204730471E+01   2.3913470482E+01   2.5145915803E+01   3.9661112560E+01   1.0500000000E-01     0.000   1.
</event>
<event>
 13   1  9.2978750E-05  1.2500000E+02  7.5467720E-03  1.2380620E-01
   21   -1    0    0  502  501   0.0000000000E+00   0.0000000000E+00   2.1102551488E+02   2.1102551488E+02   0.0000000000E+00     0.000  -1.
   21   -1    0    0  501  502   0.0000000000E+00   0.0000000000E+00  -1.8510794784E+01   1.8510794784E+01   0.0000000000E+00     0.000  -1.
   25    2    1    2    0    0   0.0000000000E+00   0.0000000000E+00   1.9251472009E+02   2.2953630966E+02   1.2500000000E+02  7.740E-08  -1.
3000002    2    3    0    0    0  -4.1041131105E+01   4.4728917098E+01   1.1647320302E+02   1.3172341283E+02   1.0000000000E+01  3.812E-10  -1.
3000002    2    3    0    0    0   4.1041131105E+01  -4.4728917098E+01   7.6041517071E+01   9.7812896826E+01   1.0000000000E+01  3.552E-10  -1.
3000001    1    4    0    0    0  -3.4115332254E+01   3.8424587905E+01   1.0506430747E+02   1.1696073510E+02   1.0000000000E+00     0.000  -1.
3000022   2   4   0   0   0   -6.9257988507E+00   6.3043291928E+00   1.1408895549E+01   1.4762677736E+01   2.5000000000E-01   6.561087E+00   0.
3000001    1    5    0    0    0   5.8464112514E+00  -1.0738097893E+01   1.1446964364E+01   1.6778565613E+01   1.0000000000E+00     0.000   1.
3000022   2   5   0   0   0   3.5194719853E+01   -3.3990819205E+01   6.4594552707E+01   8.1034331213E+01   2.5000000000E-01   1.119741E+01   0.
13    1    7    0    0    0  -3.4559146640E+00   3.0749263272E+00   5.5670893849E+00   7.2389244576E+00   1.0500000000E-01     0.000   1.
-13    1    7    0    0    0  -3.4698841867E+00   3.2294028656E+00   5.8418061643E+00   7.5237532787E+00   1.0500000000E-01     0.000  -1.
13    1    9    0    0    0   1.3591730589E+01  -1.3197433343E+01   2.4952597041E+01   3.1329706531E+01   1.0500000000E-01     0.000  -1.
-13    1    9    0    0    0   2.1602989264E+01  -2.0793385862E+01   3.9641955666E+01   4.9704624682E+01   1.0500000000E-01     0.000   1.
</event>
<event>
 13   1  9.2978750E-05  1.2500000E+02  7.5467720E-03  1.2380620E-01
   21   -1    0    0  502  501   0.0000000000E+00   0.0000000000E+00   4.9520004121E+01   4.9520004121E+01   0.0000000000E+00     0.000   1.
   21   -1    0    0  501  502   0.0000000000E+00   0.0000000000E+00  -7.8882263226E+01   7.8882263226E+01   0.0000000000E+00     0.000   1.
   25    2    1    2    0    0   0.0000000000E+00   0.0000000000E+00  -2.9362259105E+01   1.2840226735E+02   1.2500000000E+02  1.170E-10  -1.
3000002    2    3    0    0    0  -3.2095578140E+01   3.2040487075E+01   2.8284730266E+01   5.4375958974E+01   1.0000000000E+01  1.967E-10   1.
3000002    2    3    0    0    0   3.2095578140E+01  -3.2040487075E+01  -5.7646989371E+01   7.4026308376E+01   1.0000000000E+01  7.172E-11   1.
3000001    1    4    0    0    0  -1.0588926235E+01   4.7130359159E+00   7.9569529241E+00   1.4094366470E+01   1.0000000000E+00     0.000   1.
3000022   2   4   0   0   0   -2.1506651906E+01   2.7327451159E+01   2.0327777342E+01   4.0281592504E+01   2.5000000000E-01   3.252238E-01   0.
3000001    1    5    0    0    0   3.2143289745E+01  -2.9176958302E+01  -5.5329066980E+01   7.0333431768E+01   1.0000000000E+00     0.000   1.
3000022   2   5   0   0   0   -4.7711604030E-02   -2.8635287724E+00   -2.3179223908E+00   3.6928766074E+00   2.5000000000E-01   9.178945E+00   0.
13    1    7    0    0    0  -8.7695018799E+00   1.1046892875E+01   8.2709742623E+00   1.6351086987E+01   1.0500000000E-01     0.000   1.
-13    1    7    0    0    0  -1.2737150026E+01   1.6280558284E+01   1.2056803080E+01   2.3930505517E+01   1.0500000000E-01     0.000  -1.
13    1    9    0    0    0   1.6948926536E-02  -7.9222561452E-01  -6.1352183128E-01   1.0076421626E+00   1.0500000000E-01     0.000   1.
-13    1    9    0    0    0  -6.4660530566E-02  -2.0713031579E+00  -1.7044005595E+00   2.6852344448E+00   1.0500000000E-01     0.000  -1.
</event>
<event>
 13   1  9.2978750E-05  1.2500000E+02  7.5467720E-03  1.2380620E-01
   21   -1    0    0  502  501   0.0000000000E+00   0.0000000000E+00   1.5065786616E+02   1.5065786616E+02   0.0000000000E+00     0.000  -1.
   21   -1    0    0  501  502   0.0000000000E+00   0.0000000000E+00  -2.5927952516E+01   2.5927952516E+01   0.0000000000E+00     0.000  -1.
   25    2    1    2    0    0   0.0000000000E+00   0.0000000000E+00   1.2472991364E+02   1.7658581868E+02   1.2500000000E+02  8.956E-08  -1.
3000002    2    3    0    0    0   1.5249661295E+01   5.8742976677E+01   4.6700019575E+01   7.7228112153E+01   1.0000000000E+01  2.543E-10   1.
3000002    2    3    0    0    0  -1.5249661295E+01  -5.8742976677E+01   7.8029894065E+01   9.9357706527E+01   1.0000000000E+01  4.192E-10   1.
3000001    1    4    0    0    0   1.1175099159E+01   2.4355619112E+01   2.2133616430E+01   3.4770332179E+01   1.0000000000E+00     0.000   1.
3000022   2   4   0   0   0   4.0745621360E+00   3.4387357565E+01   2.4566403144E+01   4.2457779974E+01   2.5000000000E-01   1.065235E+01   0.
3000001    1    5    0    0    0  -3.3979048243E+00  -1.1802461268E+01   2.2761413215E+01   2.5882924501E+01   1.0000000000E+00     0.000  -1.
3000022   2   5   0   0   0   -1.1851756471E+01   -4.6940515408E+01   5.5268480850E+01   7.3474782026E+01   2.5000000000E-01   1.110920E+00   0.
13    1    7    0    0    0   1.5935070339E+00   1.3889363337E+01   9.8736555760E+00   1.7115892557E+01   1.0500000000E-01     0.000  -1.
-13    1    7    0    0    0   2.4810551021E+00   2.0497994228E+01   1.4692747568E+01   2.5341887418E+01   1.0500000000E-01     0.000   1.
13    1    9    0    0    0  -3.1982402943E+00  -1.2604805794E+01   1.4894326076E+01   1.9772755102E+01   1.0500000000E-01     0.000  -1.
-13    1    9    0    0    0  -8.6535161768E+00  -3.4335709615E+01   4.0374154775E+01   5.3702026924E+01   1.0500000000E-01     0.000   1.
</event>
<event>
 13   1  9.2978750E-05  1.2500000E+02  7.5467720E-03  1.2380620E-01
   21   -1    0    0  502  501   0.0000000000E+00   0.0000000000E+00   6.2573973503E+02   6.2573973503E+02   0.0000000000E+00     0.000   1.
   21   -1    0    0  501  502   0.0000000000E+00   0.0000000000E+00  -6.2426113947E+00   6.2426113947E+00   0.0000000000E+00     0.000   1.
   25    2    1    2    0    0   0.0000000000E+00   0.0000000000E+00   6.1949712364E+02   6.3198234643E+02   1.2500000000E+02  4.875E-08  -1.
3000002    2    3    0    0    0  -1.8627506163E+01   5.7415441397E+01   2.4525254596E+02   2.5276931815E+02   1.0000000000E+01  1.125E-10   1.
3000002    2    3    0    0    0   1.8627506163E+01  -5.7415441397E+01   3.7424457768E+02   3.7921302828E+02   1.0000000000E+01  7.338E-11   1.
3000001    1    4    0    0    0  -2.1069663302E+00   1.9864403834E+01   8.9127152509E+01   9.1343763669E+01   1.0000000000E+00     0.000  -1.
3000022   2   4   0   0   0   -1.6520539833E+01   3.7551037563E+01   1.5612539345E+02   1.6142555448E+02   2.5000000000E-01   6.259783E-02   0.
3000001    1    5    0    0    0   9.6320773427E+00  -4.2697872425E+01   2.5605509205E+02   2.5977123664E+02   1.0000000000E+00     0.000   1.
3000022   2   5   0   0   0   8.9954288202E+00   -1.4717568972E+01   1.1818948563E+02   1.1944179164E+02   2.5000000000E-01   2.223632E+00   0.
13    1    7    0    0    0  -5.4680704118E+00   1.2382909308E+01   5.1710992231E+01   5.3453474905E+01   1.0500000000E-01     0.000   1.
-13    1    7    0    0    0  -1.1052469421E+01   2.5168128255E+01   1.0441440122E+02   1.0797207958E+02   1.0500000000E-01     0.000  -1.
13    1    9    0    0    0   2.6613591640E+00  -4.3687872782E+00   3.5363254843E+01   3.5731498051E+01   1.0500000000E-01     0.000   1.
-13    1    9    0    0    0   6.3340696562E+00  -1.0348781694E+01   8.2826230785E+01   8.3710293584E+01   1.0500000000E-01     0.000  -1.
</event>
<event>
 13   1  9.2978750E-05  1.2500000E+02  7.5467720E-03  1.2380620E-01
   21   -1    0    0  502  501   0.0000000000E+00   0.0000000000E+00   1.9339134186E+01   1.9339134186E+01   0.0000000000E+00     0.000  -1.
   21   -1    0    0  501  502   0.0000000000E+00   0.0000000000E+00  -2.0198680884E+02   2.0198680884E+02   0.0000000000E+00     0.000  -1.
   25    2    1    2    0    0   0.0000000000E+00   0.0000000000E+00  -1.8264767465E+02   2.2132594302E+02   1.2500000000E+02  1.243E-08  -1.
3000002    2    3    0    0    0  -5.3203084039E+01   1.3007411724E+01  -1.4160688104E+02   1.5215869896E+02   1.0000000000E+01  9.561E-10   1.
3000002    2    3    0    0    0   5.3203084039E+01  -1.3007411724E+01  -4.1040793613E+01   6.9167244064E+01   1.0000000000E+01  1.039E-09   1.
3000001    1    4    0    0    0  -4.7955543039E+01   1.1980329811E+01  -1.3422222794E+02   1.4303799805E+02   1.0000000000E+00     0.000   1.
3000022   2   4   0   0   0   -5.2475410001E+00   1.0270819127E+00   -7.3846530930E+00   9.1207009109E+00   2.5000000000E-01   3.036340E+00   0.
3000001    1    5    0    0    0   3.0401764157E+01  -4.8942558860E+00  -2.8210184593E+01   4.1773622291E+01   1.0000000000E+00     0.000  -1.
3000022   2   5   0   0   0   2.2801319882E+01   -8.1131558377E+00   -1.2830609019E+01   2.7393621773E+01   2.5000000000E-01   4.375492E+00   0.
13    1    7    0    0    0  -3.0185886823E+00   6.2728058028E-01  -4.3489851213E+00   5.3319841658E+00   1.0500000000E-01     0.000   1.
-13    1    7    0    0    0  -2.2289523178E+00   3.9980133245E-01  -3.0356679717E+00   3.7887167451E+00   1.0500000000E-01     0.000  -1.
13    1    9    0    0    0   1.4889821090E+01  -5.3440261028E+00  -8.4266947752E+00   1.7924441327E+01   1.0500000000E-01     0.000  -1.
-13    1    9    0    0    0   7.9114987928E+00  -2.7691297349E+00  -4.4039142443E+00   9.4691804454E+00   1.0500000000E-01     0.000   1.
</event>
<event>
 13   1  9.2978750E-05  1.2500000E+02  7.5467720E-03  1.2380620E-01
   21   -1    0    0  502  501   0.0000000000E+00   0.0000000000E+00   5.2933133514E+02   5.2933133514E+02   0.0000000000E+00     0.000   1.
   21   -1    0    0  501  502   0.0000000000E+00   0.0000000000E+00  -7.3795933485E+00   7.3795933485E+00   0.0000000000E+00     0.000   1.
   25    2    1    2    0    0   0.0000000000E+00   0.0000000000E+00   5.2195174180E+02   5.3671092849E+02   1.2500000000E+02  4.090E-09  -1.
3000002    2    3    0    0    0  -3.7565904872E+01   3.1315872344E+01   9.9498459375E+01   1.1131857207E+02   1.0000000000E+01  1.458E-09   1.
3000002    2    3    0    0    0   3.7565904872E+01  -3.1315872344E+01   4.2245328243E+02   4.2539235642E+02   1.0000000000E+01  4.236E-11   1.
3000001    1    4    0    0    0  -1.6300613860E+01   1.7717089459E+01   4.0160593083E+01   4.6834586663E+01   1.0000000000E+00     0.000  -1.
3000022   2   4   0   0   0   -2.1265291013E+01   1.3598782885E+01   5.9337866292E+01   6.4483985406E+01   2.5000000000E-01   1.561446E+00   0.
3000001    1    5    0    0    0   7.8440865791E+00  -2.2782568613E+00   8.2321783384E+01   8.2732074603E+01   1.0000000000E+00     0.000  -1.
3000022   2   5   0   0   0   2.9721818293E+01   -2.9037615483E+01   3.4013149904E+02   3.4266028182E+02   2.5000000000E-01   4.134976E+00   0.
13    1    7    0    0    0  -7.7535011007E+00   5.0134521285E+00   2.1798249616E+01   2.3673322388E+01   1.0500000000E-01     0.000   1.
-13    1    7    0    0    0  -1.3511789912E+01   8.5853307563E+00   3.7539616676E+01   4.0810663019E+01   1.0500000000E-01     0.000  -1.
13    1    9    0    0    0   1.8558464515E+01  -1.8047435292E+01   2.1196329792E+02   2.1353823362E+02   1.0500000000E-01     0.000  -1.
-13    1    9    0    0    0   1.1163353778E+01  -1.0990180191E+01   1.2816820112E+02   1.2912204820E+02   1.0500000000E-01     0.000   1.
</event>
<event>
 13   1  9.2978750E-05  1.2500000E+02  7.5467720E-03  1.2380620E-01
   21   -1    0    0  502  501   0.0000000000E+00   0.0000000000E+00   2.0769179401E+01   2.0769179401E+01   0.0000000000E+00     0.000   1.
   21   -1    0    0  501  502   0.0000000000E+00   0.0000000000E+00  -1.8807916888E+02   1.8807916888E+02   0.0000000000E+00     0.000   1.
   25    2    1    2    0    0   0.0000000000E+00   0.0000000000E+00  -1.6730998948E+02   2.0884834828E+02   1.2500000000E+02  1.532E-08  -1.
3000002    2    3    0    0    0  -2.6056184021E+01  -5.5125871781E+01  -9.9369589120E+01   1.1701325441E+02   1.0000000000E+01  3.417E-10  -1.
3000002    2    3    0    0    0   2.6056184021E+01   5.5125871781E+01  -6.7940400360E+01   9.1835093871E+01   1.0000000000E+01  2.820E-10  -1.
3000001    1    4    0    0    0  -2.1747995389E+01  -5.2244108560E+01  -9.0926040770E+01   1.0710260068E+02   1.0000000000E+00     0.000   1.
3000022   2   4   0   0   0   -4.3081886316E+00   -2.8817632205E+00   -8.4435483509E+00   9.9106537271E+00   2.5000000000E-01   4.243918E+00   0.
3000001    1    5    0    0    0   6.7411874026E+00   6.9470733335E+00  -8.5049687062E+00   1.2924392759E+01   1.0000000000E+00     0.000   1.
3000022   2   5   0   0   0   1.9314996618E+01   4.8178798447E+01   -5.9435431653E+01   7.8910701112E+01   2.5000000000E-01   4.174073E+00   0.
13    1    7    0    0    0  -1.5863284188E+00  -9.9323792685E-01  -3.0781081036E+00   3.6039886139E+00   1.0500000000E-01     0.000   1.
-13    1    7    0    0    0  -2.7218602128E+00  -1.8885252936E+00  -5.3654402473E+00   6.3066651132E+00   1.0500000000E-01     0.000  -1.
13    1    9    0    0    0   1.2587973212E+01   3.1265949151E+01  -3.8551881745E+01   5.1208156157E+01   1.0500000000E-01     0.000  -1.
-13    1    9    0    0    0   6.7270234060E+00   1.6912849296E+01  -2.0883549909E+01   2.7702544955E+01   1.0500000000E-01     0.000   1.
</event>
<event>
 13   1  9.2978750E-05  1.2500000E+02  7.5467720E-03  1.2380620E-01
   21   -1    0    0  502  501   0.0000000000E+00   0.0000000000E+00   1.3626610043E+02   1.3626610043E+02   0.0000000000E+00     0.000  -1.
   21   -1    0    0  501  502   0.0000000000E+00   0.0000000000E+00  -2.8666337319E+01   2.8666337319E+01   0.0000000000E+00     0.000  -1.
   25    2    1    2    0    0   0.0000000000E+00   0.0000000000E+00   1.0759976311E+02   1.6493243775E+02   1.2500000000E+02  9.530E-08  -1.
3000002    2    3    0    0    0   8.4611066812E-01   4.9153976511E+01   1.0298264715E+02   1.1455241125E+02   1.0000000000E+01  2.119E-09   1.
3000002    2    3    0    0    0  -8.4611066812E-01  -4.9153976511E+01   4.6171159623E+00   5.0380026498E+01   1.0000000000E+01  7.478E-10   1.
3000001    1    4    0    0    0  -2.6828021990E+00   2.0648674963E+01   3.4795875170E+01   4.0562521300E+01   1.0000000000E+00     0.000  -1.
3000022   2   4   0   0   0   3.5289128671E+00   2.8505301548E+01   6.8186771978E+01   7.3989889952E+01   2.5000000000E-01   1.229130E+00   0.
3000001    1    5    0    0    0  -2.2996143372E+00  -3.9346278528E+00  -1.0517931681E+00   4.7828643414E+00   1.0000000000E+00     0.000   1.
3000022   2   5   0   0   0   1.4535036690E+00   -4.5219348658E+01   5.6689091304E+00   4.5597162157E+01   2.5000000000E-01   1.036897E+00   0.
13    1    7    0    0    0   1.6820653024E+00   1.4138855407E+01   3.3796182428E+01   3.6673281113E+01   1.0500000000E-01     0.000   1.
-13    1    7    0    0    0   1.8468475647E+00   1.4366446141E+01   3.4390589550E+01   3.7316608840E+01   1.0500000000E-01     0.000  -1.
13    1    9    0    0    0   8.8507977611E-01  -2.7717976417E+01   3.5366765380E+00   2.7956907712E+01   1.0500000000E-01     0.000   1.
-13    1    9    0    0    0   5.6842389292E-01  -1.7501372241E+01   2.1322325923E+00   1.7640254445E+01   1.0500000000E-01     0.000  -1.
</event>
<event>
 13   1  9.2978750E-05  1.2500000E+02  7.5467720E-03  1.2380620E-01
   21   -1    0    0  502  501   0.0000000000E+00   0.0000000000E+00   7.1559348237E+02   7.1559348237E+02   0.0000000000E+00     0.000  -1.
   21   -1    0    0  501  502   0.0000000000E+00   0.0000000000E+00  -5.4587556989E+00   5.4587556989E+00   0.0000000000E+00     0.000  -1.
   25    2    1    2    0    0   0.0000000000E+00   0.0000000000E+00   7.1013472667E+02   7.2105223807E+02   1.2500000000E+02  3.897E-08  -1.
3000002    2    3    0    0    0   3.2876410855E+00  -6.4397411927E+00   1.6383636811E+00   1.2448417011E+01   1.0000000000E+01  5.771E-10  -1.
3000002    2    3    0    0    0  -3.2876410855E+00   6.4397411927E+00   7.0849636299E+02   7.0860382106E+02   1.0000000000E+01  1.705E-09  -1.
3000001    1    4    0    0    0   4.5731989224E+00   9.5631393633E-01   8.6791117794E-02   4.7787255023E+00   1.0000000000E+00     0.000  -1.
3000022   2   4   0   0   0   -1.2855578369E+00   -7.3960551290E+00   1.5515725633E+00   7.6696915090E+00   2.5000000000E-01   1.462214E+01   0.
3000001    1    5    0    0    0   3.4252224895E+00   1.6006345820E+00   1.7880980278E+02   1.7885256428E+02   1.0000000000E+00     0.000   1.
3000022   2   5   0   0   0   -6.7128635750E+00   4.8391066106E+00   5.2968656021E+02   5.2975125678E+02   2.5000000000E-01   5.950731E+00   0.
13    1    7    0    0    0  -8.5779607021E-01  -5.1067806441E+00   1.1093051416E+00   5.2968486426E+00   1.0500000000E-01     0.000   1.
-13    1    7    0    0    0  -4.2776176671E-01  -2.2892744849E+00   4.4226742169E-01   2.3728428664E+00   1.0500000000E-01     0.000  -1.
13    1    9    0    0    0  -1.6611241801E+00   1.2255029741E+00   1.3305833526E+02   1.3307438821E+02   1.0500000000E-01     0.000  -1.
-13    1    9    0    0    0  -5.0517393949E+00   3.6136036365E+00   3.9662822495E+02   3.9667686856E+02   1.0500000000E-01     0.000   1.
</event>
<event>
 13   1  9.2978750E-05  1.2500000E+02  7.5467720E-03  1.2380620E-01
   21   -1    0    0  502  501   0.0000000000E+00   0.0000000000E+00   2.0675565733E+01   2.0675565733E+01   0.0000000000E+00     0.000   1.
   21   -1    0    0  501  502   0.0000000000E+00   0.0000000000E+00  -1.8893074320E+02   1.8893074320E+02   0.0000000000E+00     0.000   1.
   25    2    1    2    0    0   0.0000000000E+00   0.0000000000E+00  -1.6825517746E+02   2.0960630893E+02   1.2500000000E+02  9.331E-09  -1.
3000002    2    3    0    0    0   4.5936434500E+01  -2.9490243416E+01  -3.5922307266E+01   6.6107810663E+01   1.0000000000E+01  6.410E-10   1.
3000002    2    3    0    0    0  -4.5936434500E+01   2.9490243416E+01  -1.3233287019E+02   1.4349849827E+02   1.0000000000E+01  7.925E-10   1.
3000001    1    4    0    0    0   2.4798153014E+01  -2.0490458444E+01  -1.7339209808E+01   3.6557563882E+01   1.0000000000E+00     0.000   1.
3000022   2   4   0   0   0   2.1138281485E+01   -8.9997849717E+00   -1.8583097458E+01   2.9550246781E+01   2.5000000000E-01   5.598661E+00   0.
3000001    1    5    0    0    0  -1.6771990652E+01   1.5885238177E+01  -4.9529326004E+01   5.4660722615E+01   1.0000000000E+00     0.000  -1.
3000022   2   5   0   0   0   -2.9164443848E+01   1.3605005239E+01   -8.2803544189E+01   8.8837775652E+01   2.5000000000E-01   6.400526E+00   0.
13    1    7    0    0    0   1.2109822057E+01  -5.2261508204E+00  -1.0679103730E+01   1.6970996557E+01   1.0500000000E-01     0.000  -1.
-13    1    7    0    0    0   9.0284594280E+00  -3.7736341513E+00  -7.9039937284E+00   1.2579250224E+01   1.0500000000E-01     0.000   1.
13    1    9    0    0    0  -6.9559615852E+00   3.2405198527E+00  -1.9697346925E+01   2.1139604334E+01   1.0500000000E-01     0.000   1.
-13    1    9    0    0    0  -2.2208482263E+01   1.0364485386E+01  -6.3106197264E+01   6.7698171319E+01   1.0500000000E-01     0.000  -1.
</event>
<event>
 13   1  9.2978750E-05  1.2500000E+02  7.5467720E-03  1.2380620E-01
   21   -1    0    0  502  501   0.0000000000E+00   0.0000000000E+00   2.9687407916E+00   2.9687407916E+00   0.0000000000E+00     0.000   1.
   21   -1    0    0  501  502   0.0000000000E+00   0.0000000000E+00  -1.3157935550E+03   1.3157935550E+03   0.0000000000E+00     0.000   1.
   25    2    1    2    0    0   0.0000000000E+00   0.0000000000E+00  -1.3128248142E+03   1.3187622958E+03   1.2500000000E+02  5.341E-08  -1.
3000002    2    3    0    0    0   9.3910949448E-01  -5.4999526084E+01  -3.6168483708E+02   3.6598053386E+02   1.0000000000E+01  3.496E-10   1.
3000002    2    3    0    0    0  -9.3910949448E-01   5.4999526084E+01  -9.5113997712E+02   9.5278176194E+02   1.0000000000E+01  4.582E-10   1.
3000001    1    4    0    0    0   2.1200284785E+00  -1.7271832603E+01  -8.8490709575E+01   9.0190999569E+01   1.0000000000E+00     0.000   1.
3000022   2   4   0   0   0   -1.1809189840E+00   -3.7727693481E+01   -2.7319412750E+02   2.7578953429E+02   2.5000000000E-01   1.124923E+01   0.
3000001    1    5    0    0    0  -4.5864851233E-01   5.2830707257E+01  -9.3442990697E+02   9.3592283070E+02   1.0000000000E+00     0.000   1.
3000022   2   5   0   0   0   -4.8046098215E-01   2.1688188265E+00   -1.6710070153E+01   1.6858931235E+01   2.5000000000E-01   2.649559E-01   -1.
13    1    7    0    0    0  -6.3686294099E-01  -1.9923883893E+01  -1.4379235599E+02   1.4516755633E+02   1.0500000000E-01     0.000   1.
-13    1    7    0    0    0  -5.4405604305E-01  -1.7803809588E+01  -1.2940177151E+02   1.3062197796E+02   1.0500000000E-01     0.000  -1.
13    1    9    0    0    0  -3.5628036590E-01   1.5438479543E+00  -1.1571867342E+01   1.1680305689E+01   1.0500000000E-01     0.000  -1.
-13    1    9    0    0    0  -1.2418061625E-01   6.2497087224E-01  -5.1382028103E+00   5.1786255451E+00   1.0500000000E-01     0.000   1.
</event>
<event>
 13   1  9.2978750E-05  1.2500000E+02  7.5467720E-03  1.2380620E-01
   21   -1    0    0  502  501   0.0000000000E+00   0.0000000000E+00   1.5286741496E+02   1.5286741496E+02   0.0000000000E+00     0.000  -1.
   21   -1    0    0  501  502   0.0000000000E+00   0.0000000000E+00  -2.5553189351E+01   2.5553189351E+01   0.0000000000E+00     0.000  -1.
   25    2    1    2    0    0   0.0000000000E+00   0.0000000000E+00   1.2731422560E+02   1.7842060431E+02   1.2500000000E+02  7.949E-09  -1.
3000002    2    3    0    0    0  -2.6643804097E+01   1.6960694758E+01   1.3930330870E+02   1.4318857943E+02   1.0000000000E+01  1.824E-10   1.
3000002    2    3    0    0    0   2.6643804097E+01  -1.6960694758E+01  -1.1989083104E+01   3.5232024879E+01   1.0000000000E+01  4.839E-11   1.
3000001    1    4    0    0    0  -1.5402091369E+01   3.9578116803E+00   6.8254468504E+01   7.0089665162E+01   1.0000000000E+00     0.000   1.
3000022   2   4   0   0   0   -1.1241712729E+01   1.3002883077E+01   7.1048840200E+01   7.3098914268E+01   2.5000000000E-01   2.986465E+00   0.
3000001    1    5    0    0    0   1.7287111144E+01  -1.4599619357E+01  -4.6898408443E+00   2.3129801215E+01   1.0000000000E+00     0.000  -1.
3000022   2   5   0   0   0   9.3566929528E+00   -2.3610754002E+00   -7.2992422597E+00   1.2102223665E+01   2.5000000000E-01   3.712342E+00   0.
13    1    7    0    0    0  -4.7371466868E+00   5.5617292438E+00   3.0042453052E+01   3.0918172670E+01   1.0500000000E-01     0.000   1.
-13    1    7    0    0    0  -6.5045660419E+00   7.4411538335E+00   4.1006387148E+01   4.2180741598E+01   1.0500000000E-01     0.000  -1.
13    1    9    0    0    0   2.3118423696E+00  -5.7937177538E-01  -1.7736295896E+00   2.9727216010E+00   1.0500000000E-01     0.000  -1.
-13    1    9    0    0    0   7.0448505832E+00  -1.7817036248E+00  -5.5256126702E+00   9.1295020635E+00   1.0500000000E-01     0.000   1.
</event>
<event>
 13   1  9.2978750E-05  1.2500000E+02  7.5467720E-03  1.2380620E-01
   21   -1    0    0  502  501   0.0000000000E+00   0.0000000000E+00   7.7768889202E+01   7.7768889202E+01   0.0000000000E+00     0.000  -1.
   21   -1    0    0  501  502   0.0000000000E+00   0.0000000000E+00  -5.0228954536E+01   5.0228954536E+01   0.0000000000E+00     0.000  -1.
   25    2    1    2    0    0   0.0000000000E+00   0.0000000000E+00   2.7539934666E+01   1.2799784374E+02   1.2500000000E+02  4.337E-08  -1.
3000002    2    3    0    0    0   4.5119749418E+01  -3.1855896103E+01  -1.4378573394E+01   5.7942499747E+01   1.0000000000E+01  2.266E-10  -1.
3000002    2    3    0    0    0  -4.5119749418E+01   3.1855896103E+01   4.1918508060E+01   7.0055343993E+01   1.0000000000E+01  3.111E-09  -1.
3000001    1    4    0    0    0   3.2316065484E+01  -2.7769836626E+01  -9.7077558012E+00   4.3711925573E+01   1.0000000000E+00     0.000  -1.
3000022   2   4   0   0   0   1.2803683934E+01   -4.0860594769E+00   -4.6708175931E+00   1.4230574174E+01   2.5000000000E-01   1.806385E-02   0.
3000001    1    5    0    0    0  -1.5569953226E+01   5.6868898848E+00   1.1057730185E+01   1.9950878599E+01   1.0000000000E+00     0.000  -1.
3000022   2   5   0   0   0   -2.9549796192E+01   2.6169006218E+01   3.0860777875E+01   5.0104465395E+01   2.5000000000E-01   3.699680E+00   0.
13    1    7    0    0    0   4.3618852225E+00  -1.4456854313E+00  -1.6189481232E+00   4.8731988556E+00   1.0500000000E-01     0.000   1.
-13    1    7    0    0    0   8.4417987114E+00  -2.6403740456E+00  -3.0518694699E+00   9.3573753182E+00   1.0500000000E-01     0.000  -1.
13    1    9    0    0    0  -1.4289970079E+01   1.2565658833E+01   1.4890381978E+01   2.4162647355E+01   1.0500000000E-01     0.000  -1.
-13    1    9    0    0    0  -1.5259826113E+01   1.3603347385E+01   1.5970395897E+01   2.5941818039E+01   1.0500000000E-01     0.000   1.
</event>
<event>
 13   1  9.2978750E-05  1.2500000E+02  7.5467720E-03  1.2380620E-01
   21   -1    0    0  502  501   0.0000000000E+00   0.0000000000E+00   2.1139411514E+01   2.1139411514E+01   0.0000000000E+00     0.000   1.
   21   -1    0    0  501  502   0.0000000000E+00   0.0000000000E+00  -1.8478518181E+02   1.8478518181E+02   0.0000000000E+00     0.000   1.
   25    2    1    2    0    0   0.0000000000E+00   0.0000000000E+00  -1.6364577030E+02   2.0592459333E+02   1.2500000000E+02  1.584E-08  -1.
3000002    2    3    0    0    0  -4.5603224803E+01  -1.8359279804E+01  -2.0413804609E+01   5.4161247087E+01   1.0000000000E+01  1.037E-09  -1.
3000002    2    3    0    0    0   4.5603224803E+01   1.8359279804E+01  -1.4323196569E+02   1.5176334624E+02   1.0000000000E+01  2.318E-10  -1.
3000001    1    4    0    0    0  -2.2883575515E+01  -4.3871500066E+00  -7.2929999770E+00   2.4435485716E+01   1.0000000000E+00     0.000   1.
3000022   2   4   0   0   0   -2.2719649288E+01   -1.3972129797E+01   -1.3120804632E+01   2.9725761370E+01   2.5000000000E-01   3.915369E+00   0.
3000001    1    5    0    0    0   6.0423259973E+00   1.0099352435E+00  -2.8503628828E+01   2.9171673401E+01   1.0000000000E+00     0.000   1.
3000022   2   5   0   0   0   3.9560898806E+01   1.7349344560E+01   -1.1472833686E+02   1.2259167284E+02   2.5000000000E-01   9.315827E+00   0.
13    1    7    0    0    0  -1.0499950139E+01  -6.5125872316E+00  -6.0247355655E+00   1.3746679927E+01   1.0500000000E-01     0.000   1.
-13    1    7    0    0    0  -1.2219699149E+01  -7.4595425655E+00  -7.0960690666E+00   1.5979081443E+01   1.0500000000E-01     0.000  -1.
13    1    9    0    0    0   1.6452772295E+01   7.1933219519E+00  -4.7864383261E+01   5.1121891660E+01   1.0500000000E-01     0.000  -1.
-13    1    9    0    0    0   2.3108126510E+01   1.0156022608E+01  -6.6863953602E+01   7.1469781183E+01   1.0500000000E-01     0.000   1.
</event>
<event>
 13   1  9.2978750E-05  1.2500000E+02  7.5467720E-03  1.2380620E-01
   21   -1    0    0  502  501   0.0000000000E+00   0.0000000000E+00   1.7179183699E+01   1.7179183699E+01   0.0000000000E+00     0.000  -1.
   21   -1    0    0  501  502   0.0000000000E+00   0.0000000000E+00  -2.2738274813E+02   2.2738274813E+02   0.0000000000E+00     0.000  -1.
   25    2    1    2    0    0   0.0000000000E+00   0.0000000000E+00  -2.1020356443E+02   2.4456193183E+02   1.2500000000E+02  2.165E-10  -1.
3000002    2    3    0    0    0   1.2716420082E+01   4.5395274234E+01  -2.7238873800E+01   5.5356973439E+01   1.0000000000E+01  4.580E-11  -1.
3000002    2    3    0    0    0  -1.2716420082E+01  -4.5395274234E+01  -1.8296469063E+02   1.8920495839E+02   1.0000000000E+01  1.421E-09  -1.
3000001    1    4    0    0    0   9.8807269636E+00   1.8446059332E+01  -1.3999416864E+01   2.5196617685E+01   1.0000000000E+00     0.000   1.
3000022   2   4   0   0   0   2.8356931179E+00   2.6949214902E+01   -1.3239456936E+01   3.0160355754E+01   2.5000000000E-01   1.861148E+00   0.
3000001    1    5    0    0    0  -8.1059339599E+00  -4.0494673380E+01  -1.6208608664E+02   1.6726752290E+02   1.0000000000E+00     0.000  -1.
3000022   2   5   0   0   0   -4.6104861216E+00   -4.9006008532E+00   -2.0878603993E+01   2.1937435486E+01   2.5000000000E-01   1.200445E+01   0.
13    1    7    0    0    0   2.0968261405E+00   2.0176147035E+01  -9.9190731397E+00   2.2580359297E+01   1.0500000000E-01     0.000  -1.
-13    1    7    0    0    0   7.3886697743E-01   6.7730678664E+00  -3.3203837959E+00   7.5799964568E+00   1.0500000000E-01     0.000   1.
13    1    9    0    0    0  -2.0528705984E+00  -2.2374007426E+00  -9.2440926184E+00   9.7305967501E+00   1.0500000000E-01     0.000   1.
-13    1    9    0    0    0  -2.5576155233E+00  -2.6632001106E+00  -1.1634511375E+01   1.2206838736E+01   1.0500000000E-01     0.000  -1.
</event>
<event>
 13   1  9.2978750E-05  1.2500000E+02  7.5467720E-03  1.2380620E-01
   21   -1    0    0  502  501   0.0000000000E+00   0.0000000000E+00   4.7142657971E+00   4.7142657971E+00   0.0000000000E+00     0.000   1.
   21   -1    0    0  501  502   0.0000000000E+00   0.0000000000E+00  -8.2860198557E+02   8.2860198557E+02   0.0000000000E+00     0.000   1.
   25    2    1    2    0    0   0.0000000000E+00   0.0000000000E+00  -8.2388771978E+02   8.3331625137E+02   1.2500000000E+02  5.716E-08  -1.
3000002    2    3    0    0    0   1.4318967371E+01   5.7692678224E+01  -3.0184070250E+02   3.0780072715E+02   1.0000000000E+01  1.474E-10   1.
3000002    2    3    0    0    0  -1.4318967371E+01  -5.7692678224E+01  -5.2204701728E+02   5.2551552422E+02   1.0000000000E+01  1.203E-10   1.
3000001    1    4    0    0    0   5.4616463519E+00   1.6809506678E+01  -6.9173950819E+01   7.1403253200E+01   1.0000000000E+00     0.000  -1.
3000022   2   4   0   0   0   8.8573210194E+00   4.0883171546E+01   -2.3266675168E+02   2.3639747395E+02   2.5000000000E-01   1.428765E-01   0.
3000001    1    5    0    0    0   9.0441860091E-01  -1.2602605136E+01  -1.1422421913E+02   1.1492526208E+02   1.0000000000E+00     0.000  -1.
3000022   2   5   0   0   0   -1.5223385972E+01   -4.5090073088E+01   -4.0782279815E+02   4.1059026214E+02   2.5000000000E-01   1.209917E+01   0.
13    1    7    0    0    0   3.4087367603E+00   1.5451303665E+01  -8.7951965141E+01   8.9363983061E+01   1.0500000000E-01     0.000   1.
-13    1    7    0    0    0   5.4485842591E+00   2.5431867882E+01  -1.4471478654E+02   1.4703349089E+02   1.0500000000E-01     0.000  -1.
13    1    9    0    0    0  -6.2285554055E+00  -1.8562281131E+01  -1.6823935891E+02   1.6937486855E+02   1.0500000000E-01     0.000  -1.
-13    1    9    0    0    0  -8.9948305667E+00  -2.6527791957E+01  -2.3958343924E+02   2.4121539359E+02   1.0500000000E-01     0.000   1.
</event>
<event>
 13   1  9.2978750E-05  1.2500000E+02  7.5467720E-03  1.2380620E-01
   21   -1    0    0  502  501   0.0000000000E+00   0.0000000000E+00   2.7962385393E+02   2.7962385393E+02   0.0000000000E+00     0.000  -1.
   21   -1    0    0  501  502   0.0000000000E+00   0.0000000000E+00  -1.3969659402E+01   1.3969659402E+01   0.0000000000E+00     0.000  -1.
   25    2    1    2    0    0   0.0000000000E+00   0.0000000000E+00   2.6565419452E+02   2.9359351333E+02   1.2500000000E+02  1.557E-08  -1.
3000002    2    3    0    0    0  -5.9821889016E+01  -1.4819634447E+01   1.3945790488E+02   1.5279655495E+02   1.0000000000E+01  1.864E-10   1.
3000002    2    3    0    0    0   5.9821889016E+01   1.4819634447E+01   1.2619628964E+02   1.4079695838E+02   1.0000000000E+01  3.016E-10   1.
3000001    1    4    0    0    0  -3.0320109203E+01  -1.2567373373E+01   7.4777235434E+01   8.1669350645E+01   1.0000000000E+00     0.000  -1.
3000022   2   4   0   0   0   -2.9501779813E+01   -2.2522610742E+00   6.4680669445E+01   7.1127204303E+01   2.5000000000E-01   5.990200E+00   0.
3000001    1    5    0    0    0   2.9731171878E+01   6.0787509399E+00   7.2916918463E+01   7.8985889830E+01   1.0000000000E+00     0.000   1.
3000022   2   5   0   0   0   3.0090717139E+01   8.7408835072E+00   5.3279371179E+01   6.1811068553E+01   2.5000000000E-01   8.830039E+00   0.
13    1    7    0    0    0  -2.2207458161E+01  -1.7135871757E+00   4.8650219518E+01   5.3506658119E+01   1.0500000000E-01     0.000  -1.
-13    1    7    0    0    0  -7.2943216523E+00  -5.3867389854E-01   1.6030449927E+01   1.7620546183E+01   1.0500000000E-01     0.000   1.
13    1    9    0    0    0   9.7679917254E+00   2.8315333118E+00   1.7191804204E+01   1.9974994369E+01   1.0500000000E-01     0.000   1.
-13    1    9    0    0    0   2.0322725413E+01   5.9093501953E+00   3.6087566975E+01   4.1836074184E+01   1.0500000000E-01     0.000  -1.
</event>
<event>
 13   1  9.2978750E-05  1.2500000E+02  7.5467720E-03  1.2380620E-01
   21   -1    0    0  502  501   0.0000000000E+00   0.0000000000E+00   2.6353404377E+02   2.6353404377E+02   0.0000000000E+00     0.000  -1.
   21   -1    0    0  501  502   0.0000000000E+00   0.0000000000E+00  -1.4822563127E+01   1.4822563127E+01   0.0000000000E+00     0.000  -1.
   25    2    1    2    0    0   0.0000000000E+00   0.0000000000E+00   2.4871148064E+02   2.7835660690E+02   1.2500000000E+02  6.786E-08  -1.
3000002    2    3    0    0    0  -3.9135013347E+01  -4.7403145548E+01   1.3606367690E+02   1.4963933858E+02   1.0000000000E+01  7.346E-10  -1.
3000002    2    3    0    0    0   3.9135013347E+01   4.7403145548E+01   1.1264780374E+02   1.2871726832E+02   1.0000000000E+01  1.222E-10  -1.
3000001    1    4    0    0    0  -3.5979231860E+00  -3.8712771449E+00   1.9631944708E+01   2.0355468332E+01   1.0000000000E+00     0.000   1.
3000022   2   4   0   0   0   -3.5537090161E+01   -4.3531868403E+01   1.1643173220E+02   1.2928387025E+02   2.5000000000E-01   1.059764E+01   0.
3000001    1    5    0    0    0   2.9087209427E+00   2.0986580563E+00   3.4890150050E+00   5.1027687450E+00   1.0000000000E+00     0.000   1.
3000022   2   5   0   0   0   3.6226292405E+01   4.5304487492E+01   1.0915878873E+02   1.2361449958E+02   2.5000000000E-01   3.265359E+00   0.
13    1    7    0    0    0  -2.2710646581E+01  -2.7753339504E+01   7.4207708459E+01   8.2418543675E+01   1.0500000000E-01     0.000   1.
-13    1    7    0    0    0  -1.2826443580E+01  -1.5778528900E+01   4.2224023738E+01   4.6865326573E+01   1.0500000000E-01     0.000  -1.
13    1    9    0    0    0   2.5262394986E+01   3.1555965187E+01   7.6153244838E+01   8.6216560264E+01   1.0500000000E-01     0.000   1.
-13    1    9    0    0    0   1.0963897419E+01   1.3748522305E+01   3.3005543891E+01   3.7397939311E+01   1.0500000000E-01     0.000  -1.
</event>
<event>
 13   1  9.2978750E-05  1.2500000E+02  7.5467720E-03  1.2380620E-01
   21   -1    0    0  502  501   0.0000000000E+00   0.0000000000E+00   6.2482244433E+02   6.2482244433E+02   0.0000000000E+00     0.000   1.
   21   -1    0    0  501  502   0.0000000000E+00   0.0000000000E+00  -6.2517760613E+00   6.2517760613E+00   0.0000000000E+00     0.000   1.
   25    2    1    2    0    0   0.0000000000E+00   0.0000000000E+00   6.1857066826E+02   6.3107422039E+02   1.2500000000E+02  3.717E-08  -1.
3000002    2    3    0    0    0   1.6570803830E+01  -2.4770677752E+01   3.6564430629E+01   4.8219659923E+01   1.0000000000E+01  5.615E-10  -1.
3000002    2    3    0    0    0  -1.6570803830E+01   2.4770677752E+01   5.8200623763E+02   5.8285456047E+02   1.0000000000E+01  1.215E-09  -1.
3000001    1    4    0    0    0   6.5159684596E+00  -1.3602881217E+01   2.5166004032E+01   2.9356838748E+01   1.0000000000E+00     0.000  -1.
3000022   2   4   0   0   0   1.0054835370E+01   -1.1167796535E+01   1.1398426597E+01   1.8862821175E+01   2.5000000000E-01   1.097903E+01   0.
3000001    1    5    0    0    0  -2.1286805652E-01   3.4781327347E+00   1.3066285412E+02   1.3071313694E+02   1.0000000000E+00     0.000  -1.
3000022   2   5   0   0   0   -1.6357935773E+01   2.1292545017E+01   4.5134338351E+02   4.5214142353E+02   2.5000000000E-01   5.259487E+00   0.
13    1    7    0    0    0   7.4280606332E+00  -8.2011299137E+00   8.3990120597E+00   1.3892049712E+01   1.0500000000E-01     0.000  -1.
-13    1    7    0    0    0   2.6267747371E+00  -2.9666666215E+00   2.9994145375E+00   4.9707714623E+00   1.0500000000E-01     0.000   1.
13    1    9    0    0    0  -4.4451637818E+00   5.7391535298E+00   1.2166153595E+02   1.2187796240E+02   1.0500000000E-01     0.000   1.
-13    1    9    0    0    0  -1.1912771992E+01   1.5553391487E+01   3.2968184756E+02   3.3026346113E+02   1.0500000000E-01     0.000  -1.
</event>
<event>
 13   1  9.2978750E-05  1.2500000E+02  7.5467720E-03  1.2380620E-01
   21   -1    0    0  502  501   0.0000000000E+00   0.0000000000E+00   2.2052083779E+02   2.2052083779E+02   0.0000000000E+00     0.000   1.
   21   -1    0    0  501  502   0.0000000000E+00   0.0000000000E+00  -1.7713745508E+01   1.7713745508E+01   0.0000000000E+00     0.000   1.
   25    2    1    2    0    0   0.0000000000E+00   0.0000000000E+00   2.0280709229E+02   2.3823458330E+02   1.2500000000E+02  1.894E-07  -1.
3000002    2    3    0    0    0   4.9487141040E+01   1.1401422971E+01   3.4635802981E+01   6.2278474790E+01   1.0000000000E+01  9.561E-11   1.
3000002    2    3    0    0    0  -4.9487141040E+01  -1.1401422971E+01   1.6817128931E+02   1.7595610851E+02   1.0000000000E+01  1.309E-10   1.
3000001    1    4    0    0    0   2.8658324419E+01   1.6983932097E+00   2.0643910722E+01   3.5374498553E+01   1.0000000000E+00     0.000  -1.
3000022   2   4   0   0   0   2.0828816621E+01   9.7030297609E+00   1.3991892259E+01   2.6903976237E+01   2.5000000000E-01   2.737501E+00   0.
3000001    1    5    0    0    0  -4.7845809368E+01  -1.1732790056E+01   1.5416456008E+02   1.6184743255E+02   1.0000000000E+00     0.000   1.
3000022   2   5   0   0   0   -1.6413316714E+00   3.3136708505E-01   1.4006729225E+01   1.4108675962E+01   2.5000000000E-01   7.091876E+00   0.
13    1    7    0    0    0   5.7681857078E+00   2.6448212235E+00   3.8653471248E+00   7.4309473864E+00   1.0500000000E-01     0.000  -1.
-13    1    7    0    0    0   1.5060630913E+01   7.0582085374E+00   1.0126545134E+01   1.9473028850E+01   1.0500000000E-01     0.000   1.
13    1    9    0    0    0  -5.1243324240E-01   8.4227759330E-02   4.0231605347E+00   4.0578969715E+00   1.0500000000E-01     0.000  -1.
-13    1    9    0    0    0  -1.1288984290E+00   2.4713932572E-01   9.9835686905E+00   1.0050778990E+01   1.0500000000E-01     0.000   1.
</event>
<event>
 13   1  9.2978750E-05  1.2500000E+02  7.5467720E-03  1.2380620E-01
   21   -1    0    0  502  501   0.0000000000E+00   0.0000000000E+00   1.3749078427E+02   1.3749078427E+02   0.0000000000E+00     0.000   1.
   21   -1    0    0  501  502   0.0000000000E+00   0.0000000000E+00  -2.8410995114E+01   2.8410995114E+01   0.0000000000E+00     0.000   1.
   25    2    1    2    0    0   0.0000000000E+00   0.0000000000E+00   1.0907978915E+02   1.6590177938E+02   1.2500000000E+02  1.405E-10  -1.
3000002    2    3    0    0    0  -3.4254529047E+01   4.7509602220E+01   2.8814013268E+01   6.6036220546E+01   1.0000000000E+01  9.487E-10  -1.
3000002    2    3    0    0    0   3.4254529047E+01  -4.7509602220E+01   8.0265775882E+01   9.9865558834E+01   1.0000000000E+01  2.163E-09  -1.
3000001    1    4    0    0    0  -1.9336666235E+01   1.8966721445E+01   1.1200083426E+01   2.9327206689E+01   1.0000000000E+00     0.000  -1.
3000022   2   4   0   0   0   -1.4917862812E+01   2.8542880775E+01   1.7613929842E+01   3.6709013857E+01   2.5000000000E-01   4.601628E+00   0.
3000001    1    5    0    0    0   2.5295221324E+01  -3.8771012018E+01   5.6916955215E+01   7.3372879088E+01   1.0000000000E+00     0.000   1.
3000022   2   5   0   0   0   8.9593077231E+00   -8.7385902025E+00   2.3348820667E+01   2.6492679747E+01   2.5000000000E-01   3.733978E+00   0.
13    1    7    0    0    0  -1.1131120333E+01   2.1354215262E+01   1.3160041808E+01   2.7442705310E+01   1.0500000000E-01     0.000   1.
-13    1    7    0    0    0  -3.7867424789E+00   7.1886655135E+00   4.4538880339E+00   9.2663085468E+00   1.0500000000E-01     0.000  -1.
13    1    9    0    0    0   5.3799792804E+00  -5.3277443567E+00   1.4176510295E+01   1.6072134461E+01   1.0500000000E-01     0.000   1.
-13    1    9    0    0    0   3.5793284427E+00  -3.4108458458E+00   9.1723103720E+00   1.0420545285E+01   1.0500000000E-01     0.000  -1.
</event>
<event>
 13   1  9.2978750E-05  1.2500000E+02  7.5467720E-03  1.2380620E-01
   21   -1    0    0  502  501   0.0000000000E+00   0.0000000000E+00   5.4884403776E+01   5.4884403776E+01   0.0000000000E+00     0.000   1.
   21   -1    0    0  501  502   0.0000000000E+00   0.0000000000E+00  -7.1172313649E+01   7.1172313649E+01   0.0000000000E+00     0.000   1.
   25    2    1    2    0    0   0.0000000000E+00   0.0000000000E+00  -1.6287909874E+01   1.2605671743E+02   1.2500000000E+02  2.118E-08  -1.
3000002    2    3    0    0    0  -1.9839180941E+01   5.8417727962E+01  -7.9814727627E+00   6.3007364237E+01   1.0000000000E+01  5.100E-10   1.
3000002    2    3    0    0    0   1.9839180941E+01  -5.8417727962E+01  -8.3064371113E+00   6.3049353193E+01   1.0000000000E+01  5.701E-11   1.
3000001    1    4    0    0    0  -1.1005905011E+01   1.9639660401E+01  -5.2080419525E-01   2.2541460529E+01   1.0000000000E+00     0.000  -1.
3000022   2   4   0   0   0   -8.8332759292E+00   3.8778067561E+01   -7.4606685674E+00   4.0465903707E+01   2.5000000000E-01   5.985728E-01   0.
3000001    1    5    0    0    0   1.3173561147E+01  -2.8654494572E+01  -7.9763437322E+00   3.2546041723E+01   1.0000000000E+00     0.000  -1.
3000022   2   5   0   0   0   6.6656197937E+00   -2.9763233389E+01   -3.3009337910E-01   3.0503311470E+01   2.5000000000E-01   8.728669E+00   0.
13    1    7    0    0    0  -5.2103519366E+00   2.2993544560E+01  -4.3637631292E+00   2.3977162309E+01   1.0500000000E-01     0.000  -1.
-13    1    7    0    0    0  -3.6229239927E+00   1.5784523001E+01  -3.0969054382E+00   1.6488741398E+01   1.0500000000E-01     0.000   1.
13    1    9    0    0    0   3.7725147594E+00  -1.6783579992E+01  -2.5070420466E-01   1.7204484954E+01   1.0500000000E-01     0.000   1.
-13    1    9    0    0    0   2.8931050343E+00  -1.2979653398E+01  -7.9389174436E-02   1.3298826516E+01   1.0500000000E-01     0.000  -1.
</event>
<event>
 13   1  9.2978750E-05  1.2500000E+02  7.5467720E-03  1.2380620E-01
   21   -1    0    0  502  501   0.0000000000E+00   0.0000000000E+00   7.8759524286E+00   7.8759524286E+00   0.0000000000E+00     0.000   1.
   21   -1    0    0  501  502   0.0000000000E+00   0.0000000000E+00  -4.9597176156E+02   4.9597176156E+02   0.0000000000E+00     0.000   1.
   25    2    1    2    0    0   0.0000000000E+00   0.0000000000E+00  -4.8809580913E+02   5.0384771399E+02   1.2500000000E+02  3.954E-08  -1.
3000002    2    3    0    0    0  -2.9764468610E+01  -3.8944778600E+01  -3.9506137829E+02   3.9821616239E+02   1.0000000000E+01  8.881E-11  -1.
3000002    2    3    0    0    0   2.9764468610E+01   3.8944778600E+01  -9.3034430844E+01   1.0563155160E+02   1.0000000000E+01  6.563E-10  -1.
3000001    1    4    0    0    0  -1.1219020924E+01  -1.6361557322E+01  -1.2354497679E+02   1.2513164380E+02   1.0000000000E+00     0.000   1.
3000022   2   4   0   0   0   -1.8545447686E+01   -2.2583221278E+01   -2.7151640149E+02   2.7308451859E+02   2.5000000000E-01   7.430113E-01   0.
3000001    1    5    0    0    0   9.4808727752E+00   2.0063009143E+01  -4.4736833814E+01   4.9947928727E+01   1.0000000000E+00     0.000   1.
3000022   2   5   0   0   0   2.0283595835E+01   1.8881769458E+01   -4.8297597030E+01   5.5683622877E+01   2.5000000000E-01   3.656179E+00   0.
13    1    7    0    0    0  -1.2929831018E+01  -1.5711958838E+01  -1.8945082224E+02   1.9054047143E+02   1.0500000000E-01     0.000  -1.
-13    1    7    0    0    0  -5.6156166685E+00  -6.8712624404E+00  -8.2065579255E+01   8.2544047160E+01   1.0500000000E-01     0.000   1.
13    1    9    0    0    0   1.2688311108E+01   1.1760692471E+01  -3.0056182052E+01   3.4679853384E+01   1.0500000000E-01     0.000  -1.
-13    1    9    0    0    0   7.5952847270E+00   7.1210769862E+00  -1.8241414978E+01   2.1003769493E+01   1.0500000000E-01     0.000   1.
</event>
<event>
 13   1  9.2978750E-05  1.2500000E+02  7.5467720E-03  1.2380620E-01
   21   -1    0    0  502  501   0.0000000000E+00   0.0000000000E+00   4.2606820131E+01   4.2606820131E+01   0.0000000000E+00     0.000  -1.
   21   -1    0    0  501  502   0.0000000000E+00   0.0000000000E+00  -9.1681331487E+01   9.1681331487E+01   0.0000000000E+00     0.000  -1.
   25    2    1    2    0    0   0.0000000000E+00   0.0000000000E+00  -4.9074511356E+01   1.3428815162E+02   1.2500000000E+02  2.564E-08  -1.
3000002    2    3    0    0    0  -3.4757002528E+01  -1.0854894151E+01   2.8966725346E+01   4.7591481686E+01   1.0000000000E+01  5.174E-10  -1.
3000002    2    3    0    0    0   3.4757002528E+01   1.0854894151E+01  -7.8041236702E+01   8.6696669934E+01   1.0000000000E+01  9.630E-11  -1.
3000001    1    4    0    0    0  -2.1849516312E+01  -1.7621387318E+00   1.7727848709E+01   2.8209628070E+01   1.0000000000E+00     0.000  -1.
3000022   2   4   0   0   0   -1.2907486216E+01   -9.0927554190E+00   1.1238876637E+01   1.9381853616E+01   2.5000000000E-01   3.970455E+00   0.
3000001    1    5    0    0    0   1.8868635576E+01   1.0139686027E+01  -3.8374859107E+01   4.3959850463E+01   1.0000000000E+00     0.000  -1.
3000022   2   5   0   0   0   1.5888366952E+01   7.1520812428E-01   -3.9666377595E+01   4.2736819472E+01   2.5000000000E-01   2.595779E+01   0.
13    1    7    0    0    0  -6.9697746337E+00  -4.8505015572E+00   5.9873540985E+00   1.0390599497E+01   1.0500000000E-01     0.000  -1.
-13    1    7    0    0    0  -5.9377115819E+00  -4.2422538618E+00   5.2515225387E+00   8.9912541189E+00   1.0500000000E-01     0.000   1.
13    1    9    0    0    0   4.0537507954E+00   2.1138710860E-01  -1.0113476703E+01   1.0898211598E+01   1.0500000000E-01     0.000  -1.
-13    1    9    0    0    0   1.1834616157E+01   5.0382101568E-01  -2.9552900892E+01   3.1838607874E+01   1.0500000000E-01     0.000   1.
</event>
<event>
 13   1  9.2978750E-05  1.2500000E+02  7.5467720E-03  1.2380620E-01
   21   -1    0    0  502  501   0.0000000000E+00   0.0000000000E+00   5.8080452774E+01   5.8080452774E+01   0.0000000000E+00     0.000   1.
   21   -1    0    0  501  502   0.0000000000E+00   0.0000000000E+00  -6.7255846218E+01   6.7255846218E+01   0.0000000000E+00     0.000   1.
   25    2    1    2    0    0   0.0000000000E+00   0.0000000000E+00  -9.1753934443E+00   1.2533629899E+02   1.2500000000E+02  2.654E-08  -1.
3000002    2    3    0    0    0  -2.4172985663E+01  -5.2574525711E+01   1.6866972719E+01   6.1097534797E+01   1.0000000000E+01  1.431E-10   1.
3000002    2    3    0    0    0   2.4172985663E+01   5.2574525711E+01  -2.6042366163E+01   6.4238764193E+01   1.0000000000E+01  9.391E-11   1.
3000001    1    4    0    0    0  -2.4400695671E+01  -4.9974470806E+01   1.7659584534E+01   5.8358397918E+01   1.0000000000E+00     0.000  -1.
3000022   2   4   0   0   0   2.2771000797E-01   -2.6000549047E+00   -7.9261181532E-01   2.7391368795E+00   2.5000000000E-01   5.712291E+00   0.
3000001    1    5    0    0    0   3.5287818070E+00   1.6608036867E+01  -4.9597469391E+00   1.7716610266E+01   1.0000000000E+00     0.000  -1.
3000022   2   5   0   0   0   2.0644203856E+01   3.5966488844E+01   -2.1082619224E+01   4.6522153927E+01   2.5000000000E-01   1.657769E+01   0.
13    1    7    0    0    0   1.2704590314E-01  -1.3651122076E+00  -3.4604594326E-01   1.4179015466E+00   1.0500000000E-01     0.000  -1.
-13    1    7    0    0    0   1.0066410483E-01  -1.2349426970E+00  -4.4656587206E-01   1.3212353330E+00   1.0500000000E-01     0.000   1.
13    1    9    0    0    0   1.2183262837E+01   2.1097400638E+01  -1.2378413127E+01   2.7327062476E+01   1.0500000000E-01     0.000   1.
-13    1    9    0    0    0   8.4609410188E+00   1.4869088206E+01  -8.7042060975E+00   1.9195091450E+01   1.0500000000E-01     0.000  -1.
</event>
<event>
 13   1  9.2978750E-05  1.2500000E+02  7.5467720E-03  1.2380620E-01
   21   -1    0    0  502  501   0.0000000000E+00   0.0000000000E+00   9.7971790548E+01   9.7971790548E+01   0.0000000000E+00     0.000   1.
   21   -1    0    0  501  502   0.0000000000E+00   0.0000000000E+00  -3.9871170856E+01   3.9871170856E+01   0.0000000000E+00     0.000   1.
   25    2    1    2    0    0   0.0000000000E+00   0.0000000000E+00   5.8100619692E+01   1.3784296140E+02   1.2500000000E+02  3.785E-08  -1.
3000002    2    3    0    0    0  -3.3510766005E+01  -3.7781184687E+01  -1.0028858018E+01   5.2449664897E+01   1.0000000000E+01  2.696E-10  -1.
3000002    2    3    0    0    0   3.3510766005E+01   3.7781184687E+01   6.8129477710E+01   8.5393296503E+01   1.0000000000E+01  1.272E-09  -1.
3000001    1    4    0    0    0  -2.8455665863E+01  -2.9290764982E+01  -4.4282035972E+00   4.1088718891E+01   1.0000000000E+00     0.000   1.
3000022   2   4   0   0   0   -5.0551001421E+00   -8.4904197048E+00   -5.6006544210E+00   1.1360946006E+01   2.5000000000E-01   3.666057E-01   0.
3000001    1    5    0    0    0   3.2994239774E+01   3.7311225371E+01   6.3522756122E+01   8.0727244114E+01   1.0000000000E+00     0.000  -1.
3000022   2   5   0   0   0   5.1652623130E-01   4.6995931657E-01   4.6067215884E+00   4.6660523894E+00   2.5000000000E-01   1.098307E+01   0.
13    1    7    0    0    0  -2.8941552130E+00  -4.9732986089E+00  -3.2269434023E+00   6.5980316892E+00   1.0500000000E-01     0.000   1.
-13    1    7    0    0    0  -2.1609449290E+00  -3.5171210960E+00  -2.3737110187E+00   4.7629143169E+00   1.0500000000E-01     0.000  -1.
13    1    9    0    0    0   2.7347763836E-01   2.4839586672E-01   2.8464439083E+00   2.8722392742E+00   1.0500000000E-01     0.000  -1.
-13    1    9    0    0    0   2.4304859294E-01   2.2156344985E-01   1.7602776801E+00   1.7938131151E+00   1.0500000000E-01     0.000   1.
</event>
<event>
 13   1  9.2978750E-05  1.2500000E+02  7.5467720E-03  1.2380620E-01
   21   -1    0    0  502  501   0.0000000000E+00   0.0000000000E+00   2.5327736863E+01   2.5327736863E+01   0.0000000000E+00     0.000  -1.
   21   -1    0    0  501  502   0.0000000000E+00   0.0000000000E+00  -1.5422815000E+02   1.5422815000E+02   0.0000000000E+00     0.000  -1.
   25    2    1    2    0    0   0.0000000000E+00   0.0000000000E+00  -1.2890041313E+02   1.7955588686E+02   1.2500000000E+02  1.124E-08  -1.
3000002    2    3    0    0    0   2.9141988080E+01   2.3808225029E+01  -1.3467708920E+02   1.4019274376E+02   1.0000000000E+01  1.691E-09  -1.
3000002    2    3    0    0    0  -2.9141988080E+01  -2.3808225029E+01   5.7766760671E+00   3.9363143100E+01   1.0000000000E+01  1.636E-09  -1.
3000001    1    4    0    0    0   3.3487165863E+00   2.4373610475E-01  -7.0863947497E+00   7.9050806835E+00   1.0000000000E+00     0.000   1.
3000022   2   4   0   0   0   2.5793271494E+01   2.3564488925E+01   -1.2759069445E+02   1.3228766308E+02   2.5000000000E-01   1.038912E+00   0.
3000001    1    5    0    0    0  -1.7718970984E+01  -1.0382640396E+01   6.9260944816E+00   2.1696357738E+01   1.0000000000E+00     0.000  -1.
3000022   2   5   0   0   0   -1.1423017096E+01   -1.3425584634E+01   -1.1494184145E+00   1.7666785362E+01   2.5000000000E-01   2.177846E+00   0.
13    1    7    0    0    0   1.2927878998E+01   1.1742664843E+01  -6.3609801660E+01   6.5963915327E+01   1.0500000000E-01     0.000   1.
-13    1    7    0    0    0   1.2865392496E+01   1.1821824082E+01  -6.3980892787E+01   6.6323747750E+01   1.0500000000E-01     0.000  -1.
13    1    9    0    0    0  -7.4509868584E+00  -8.7836101630E+00  -6.9764199626E-01   1.1539789513E+01   1.0500000000E-01     0.000  -1.
-13    1    9    0    0    0  -3.9720302379E+00  -4.6419744709E+00  -4.5177641828E-01   6.1269958488E+00   1.0500000000E-01     0.000   1.
</event>
<event>
 13   1  9.2978750E-05  1.2500000E+02  7.5467720E-03  1.2380620E-01
   21   -1    0    0  502  501   0.0000000000E+00   0.0000000000E+00   2.1666545060E+01   2.1666545060E+01   0.0000000000E+00     0.000   1.
   21   -1    0    0  501  502   0.0000000000E+00   0.0000000000E+00  -1.8028947344E+02   1.8028947344E+02   0.0000000000E+00     0.000   1.
   25    2    1    2    0    0   0.0000000000E+00   0.0000000000E+00  -1.5862292838E+02   2.0195601850E+02   1.2500000000E+02  3.007E-08  -1.
3000002    2    3    0    0    0  -3.8974307827E+01  -5.3625993726E-01  -1.5657536275E+02   1.6166362753E+02   1.0000000000E+01  6.959E-10   1.
3000002    2    3    0    0    0   3.8974307827E+01   5.3625993726E-01  -2.0475656320E+00   4.0292390974E+01   1.0000000000E+01  1.236E-09   1.
3000001    1    4    0    0    0  -2.9986790506E+01  -3.1140115169E+00  -1.0499868414E+02   1.0924572460E+02   1.0000000000E+00     0.000   1.
3000022   2   4   0   0   0   -8.9875173217E+00   2.5777515797E+00   -5.1576678612E+01   5.2417902929E+01   2.5000000000E-01   1.347468E+01   0.
3000001    1    5    0    0    0   1.1940822738E+01   4.0400971068E+00  -3.0691362637E+00   1.3012502822E+01   1.0000000000E+00     0.000   1.
3000022   2   5   0   0   0   2.7033485090E+01   -3.5038371696E+00   1.0215706317E+00   2.7279888152E+01   2.5000000000E-01   1.065985E+01   0.
13    1    7    0    0    0  -3.7541202032E+00   1.0154197190E+00  -2.1307025572E+01   2.1659290372E+01   1.0500000000E-01     0.000  -1.
-13    1    7    0    0    0  -5.2333971185E+00   1.5623318607E+00  -3.0269653040E+01   3.0758612556E+01   1.0500000000E-01     0.000   1.
13    1    9    0    0    0   1.9444421358E+01  -2.4808099712E+00   7.2599639696E-01   1.9615759884E+01   1.0500000000E-01     0.000   1.
-13    1    9    0    0    0   7.5890637315E+00  -1.0230271984E+00   2.9557423476E-01   7.6641282673E+00   1.0500000000E-01     0.000  -1.
</event>
<event>
 13   1  9.2978750E-05  1.2500000E+02  7.5467720E-03  1.2380620E-01
   21   -1    0    0  502  501   0.0000000000E+00   0.0000000000E+00   1.6387238012E+01   1.6387238012E+01   0.0000000000E+00     0.000  -1.
   21   -1    0    0  501  502   0.0000000000E+00   0.0000000000E+00  -2.3837146914E+02   2.3837146914E+02   0.0000000000E+00     0.000  -1.
   25    2    1    2    0    0   0.0000000000E+00   0.0000000000E+00  -2.2198423112E+02   2.5475870715E+02   1.2500000000E+02  1.192E-07  -1.
3000002    2    3    0    0    0   1.8318541457E+01  -3.7178450850E+01  -1.7853361711E+01   4.6222815720E+01   1.0000000000E+01  1.050E-09   1.
3000002    2    3    0    0    0  -1.8318541457E+01   3.7178450850E+01  -2.0413086941E+02   2.0853589143E+02   1.0000000000E+01  3.324E-10   1.
3000001    1    4    0    0    0   1.9373291866E+01  -3.5782054409E+01  -1.7876249813E+01   4.4454922819E+01   1.0000000000E+00     0.000   1.
3000022   2   4   0   0   0   -1.0547504088E+00   -1.3963964404E+00   2.2888102311E-02   1.7678929008E+00   2.5000000000E-01   1.262202E+00   0.
3000001    1    5    0    0    0  -1.4480302827E+01   1.9129533020E+01  -1.0613383501E+02   1.0881640105E+02   1.0000000000E+00     0.000  -1.
3000022   2   5   0   0   0   -3.8382386302E+00   1.8048917830E+01   -9.7997034398E+01   9.9719490379E+01   2.5000000000E-01   4.184908E-01   0.
13    1    7    0    0    0  -5.3913054670E-01  -6.2681723518E-01  -3.1674251151E-02   8.3402029405E-01   1.0500000000E-01     0.000  -1.
-13    1    7    0    0    0  -5.1561986205E-01  -7.6957920518E-01   5.4562353462E-02   9.3387260673E-01   1.0500000000E-01     0.000   1.
13    1    9    0    0    0  -2.6126787175E+00   1.2082979595E+01  -6.5477311235E+01   6.6634178899E+01   1.0500000000E-01     0.000   1.
-13    1    9    0    0    0  -1.2255599126E+00   5.9659382346E+00  -3.2519723163E+01   3.3085311480E+01   1.0500000000E-01     0.000  -1.
</event>
<event>
 13   1  9.2978750E-05  1.2500000E+02  7.5467720E-03  1.2380620E-01
   21   -1    0    0  502  501   0.0000000000E+00   0.0000000000E+00   2.2747351490E+02   2.2747351490E+02   0.0000000000E+00     0.000   1.
   21   -1    0    0  501  502   0.0000000000E+00   0.0000000000E+00  -1.7172328839E+01   1.7172328839E+01   0.0000000000E+00     0.000   1.
   25    2    1    2    0    0   0.0000000000E+00   0.0000000000E+00   2.1030118606E+02   2.4464584374E+02   1.2500000000E+02  8.774E-09  -1.
3000002    2    3    0    0    0  -2.8352555818E+01   2.5285302074E+01   2.0029056193E+02   2.0410664644E+02   1.0000000000E+01  1.918E-11  -1.
3000002    2    3    0    0    0   2.8352555818E+01  -2.5285302074E+01   1.0010624131E+01   4.0539197302E+01   1.0000000000E+01  5.656E-10  -1.
3000001    1    4    0    0    0  -1.6995658433E+01   1.2880230560E+01   1.3534093977E+02   1.3701431575E+02   1.0000000000E+00     0.000   1.
3000022   2   4   0   0   0   -1.1356897385E+01   1.2405071514E+01   6.4949622164E+01   6.7092330685E+01   2.5000000000E-01   4.991209E+00   0.
3000001    1    5    0    0    0   1.3422371696E+01  -1.2059409261E+01  -3.2178896119E-01   1.8074649700E+01   1.0000000000E+00     0.000  -1.
3000022   2   5   0   0   0   1.4930184122E+01   -1.3225892813E+01   1.0332413092E+01   2.2464547601E+01   2.5000000000E-01   3.755478E+00   0.
13    1    7    0    0    0  -5.1499591967E+00   5.7141812911E+00   2.9587818845E+01   3.0571620771E+01   1.0500000000E-01     0.000  -1.
-13    1    7    0    0    0  -6.2069381886E+00   6.6908902231E+00   3.5361803319E+01   3.6520709914E+01   1.0500000000E-01     0.000   1.
13    1    9    0    0    0   4.3499103861E+00  -3.9104645574E+00   3.0416707497E+00   6.5936514444E+00   1.0500000000E-01     0.000   1.
-13    1    9    0    0    0   1.0580273736E+01  -9.3154282555E+00   7.2907423422E+00   1.5870896157E+01   1.0500000000E-01     0.000  -1.
</event>
<event>
 13   1  9.2978750E-05  1.2500000E+02  7.5467720E-03  1.2380620E-01
   21   -1    0    0  502  501   0.0000000000E+00   0.0000000000E+00   5.3270881239E+01   5.3270881239E+01   0.0000000000E+00     0.000   1.
   21   -1    0    0  501  502   0.0000000000E+00   0.0000000000E+00  -7.3328052946E+01   7.3328052946E+01   0.0000000000E+00     0.000   1.
   25    2    1    2    0    0   0.0000000000E+00   0.0000000000E+00  -2.0057171707E+01   1.2659893419E+02   1.2500000000E+02  4.604E-08  -1.
3000002    2    3    0    0    0   2.9085064009E+01   5.4404447062E+01  -1.0719359954E+01   6.3408906995E+01   1.0000000000E+01  2.896E-10  -1.
3000002    2    3    0    0    0  -2.9085064009E+01  -5.4404447062E+01  -9.3378117533E+00   6.3190027195E+01   1.0000000000E+01  9.835E-11  -1.
3000001    1    4    0    0    0   1.2488353255E+01   2.1789670392E+01  -9.2538240653E+00   2.6783987057E+01   1.0000000000E+00     0.000   1.
3000022   2   4   0   0   0   1.6596710754E+01   3.2614776670E+01   -1.4655358884E+00   3.6624919939E+01   2.5000000000E-01   1.516832E+01   0.
3000001    1    5    0    0    0  -1.1586123076E+01  -1.2451704770E+01  -2.3254143403E+00   1.7195660833E+01   1.0000000000E+00     0.000  -1.
3000022   2   5   0   0   0   -1.7498940933E+01   -4.1952742292E+01   -7.0123974130E+00   4.5994366362E+01   2.5000000000E-01   5.752627E+00   0.
13    1    7    0    0    0   8.8275348740E+00   1.7346865949E+01  -7.1207109978E-01   1.9477094251E+01   1.0500000000E-01     0.000   1.
-13    1    7    0    0    0   7.7691758802E+00   1.5267910721E+01  -7.5346478864E-01   1.7147825688E+01   1.0500000000E-01     0.000  -1.
13    1    9    0    0    0  -1.2585215447E+01  -3.0112942712E+01  -5.0011378557E+00   3.3018167294E+01   1.0500000000E-01     0.000  -1.
-13    1    9    0    0    0  -4.9137254868E+00  -1.1839799580E+01  -2.0112595572E+00   1.2976199068E+01   1.0500000000E-01     0.000   1.
</event>
<event>
 13   1  9.2978750E-05  1.2500000E+02  7.5467720E-03  1.2380620E-01
   21   -1    0    0  502  501   0.0000000000E+00   0.0000000000E+00   1.0133598068E+02   1.0133598068E+02   0.0000000000E+00     0.000  -1.
   21   -1    0    0  501  502   0.0000000000E+00   0.0000000000E+00  -3.8547512679E+01   3.8547512679E+01   0.0000000000E+00     0.000  -1.
   25    2    1    2    0    0   0.0000000000E+00   0.0000000000E+00   6.2788467998E+01   1.3988349336E+02   1.2500000000E+02  6.180E-08  -1.
3000002    2    3    0    0    0  -4.1462622706E+00  -3.3065664748E+01   8.9496607394E+01   9.6021728849E+01   1.0000000000E+01  1.701E-09  -1.
3000002    2    3    0    0    0   4.1462622706E+00   3.3065664748E+01  -2.6708139396E+01   4.3861764511E+01   1.0000000000E+01  6.832E-10  -1.
3000001    1    4    0    0    0   1.4868271207E-01  -9.0028911444E+00   1.4082199511E+01   1.6744625961E+01   1.0000000000E+00     0.000   1.
3000022   2   4   0   0   0   -4.2949449827E+00   -2.4062773604E+01   7.5414407883E+01   7.9277102888E+01   2.5000000000E-01   4.827919E+00   0.
3000001    1    5    0    0    0   4.1002967911E+00   4.8689254040E+00  -6.6348905373E+00   9.2488183465E+00   1.0000000000E+00     0.000  -1.
3000022   2   5   0   0   0   4.5965479543E-02   2.8196739344E+01   -2.0073248859E+01   3.4612946165E+01   2.5000000000E-01   5.815343E+00   0.
13    1    7    0    0    0  -1.3279275397E+00  -7.7113060869E+00   2.4086535088E+01   2.5325872752E+01   1.0500000000E-01     0.000   1.
-13    1    7    0    0    0  -2.9670174430E+00  -1.6351467517E+01   5.1327872795E+01   5.3951230136E+01   1.0500000000E-01     0.000  -1.
13    1    9    0    0    0   2.3019653251E-02   1.8441449451E+01  -1.3060222390E+01   2.2597964989E+01   1.0500000000E-01     0.000   1.
-13    1    9    0    0    0   2.2945826292E-02   9.7552898932E+00  -7.0130264688E+00   1.2014981176E+01   1.0500000000E-01     0.000  -1.
</event>
<event>
 13   1  9.2978750E-05  1.2500000E+02  7.5467720E-03  1.2380620E-01
   21   -1    0    0  502  501   0.0000000000E+00   0.0000000000E+00   6.4713201876E+00   6.4713201876E+00   0.0000000000E+00     0.000   1.
   21   -1    0    0  501  502   0.0000000000E+00   0.0000000000E+00  -6.0362489983E+02   6.0362489983E+02   0.0000000000E+00     0.000   1.
   25    2    1    2    0    0   0.0000000000E+00   0.0000000000E+00  -5.9715357964E+02   6.1009622001E+02   1.2500000000E+02  4.855E-09  -1.
3000002    2    3    0    0    0  -4.6559977806E+00  -3.4326939788E+01  -4.9407260557E+01   6.1164487297E+01   1.0000000000E+01  2.739E-10  -1.
3000002    2    3    0    0    0   4.6559977806E+00   3.4326939788E+01  -5.4774631908E+02   5.4893173271E+02   1.0000000000E+01  1.835E-10  -1.
3000001    1    4    0    0    0  -1.5364284171E+00  -3.0360429479E+01  -3.7890032895E+01   4.8587764748E+01   1.0000000000E+00     0.000  -1.
3000022   2   4   0   0   0   -3.1195693635E+00   -3.9665103084E+00   -1.1517227662E+01   1.2576722549E+01   2.5000000000E-01   1.458496E+01   0.
3000001    1    5    0    0    0  -2.7716943443E+00   1.0899237042E+01  -1.4751376860E+02   1.4794521818E+02   1.0000000000E+00     0.000  -1.
3000022   2   5   0   0   0   7.4276921249E+00   2.3427702746E+01   -4.0023255049E+02   4.0098651453E+02   2.5000000000E-01   2.735934E+00   0.
13    1    7    0    0    0  -9.4752836150E-01  -1.2836650516E+00  -3.6186525423E+00   3.9561695088E+00   1.0500000000E-01     0.000  -1.
-13    1    7    0    0    0  -2.1720410020E+00  -2.6828452568E+00  -7.8985751202E+00   8.6205530400E+00   1.0500000000E-01     0.000   1.
13    1    9    0    0    0   1.9493634300E+00   6.0557223148E+00  -1.0339040722E+02   1.0358599867E+02   1.0500000000E-01     0.000  -1.
-13    1    9    0    0    0   5.4783286949E+00   1.7371980431E+01  -2.9684214327E+02   2.9740051586E+02   1.0500000000E-01     0.000   1.
</event>
<event>
 13   1  9.2978750E-05  1.2500000E+02  7.5467720E-03  1.2380620E-01
   21   -1    0    0  502  501   0.0000000000E+00   0.0000000000E+00   5.2267839512E+01   5.2267839512E+01   0.0000000000E+00     0.000   1.
   21   -1    0    0  501  502   0.0000000000E+00   0.0000000000E+00  -7.4735248988E+01   7.4735248988E+01   0.0000000000E+00     0.000   1.
   25    2    1    2    0    0   0.0000000000E+00   0.0000000000E+00  -2.2467409477E+01   1.2700308850E+02   1.2500000000E+02  4.944E-09  -1.
3000002    2    3    0    0    0   3.5320921273E+01  -3.7928558598E+01   2.2770609264E+01   5.7486030331E+01   1.0000000000E+01  1.462E-09   1.
3000002    2    3    0    0    0  -3.5320921273E+01   3.7928558598E+01  -4.5238018741E+01   6.9517058169E+01   1.0000000000E+01  2.839E-10   1.
3000001    1    4    0    0    0   3.2850863901E+01  -3.7996566177E+01   2.1081962535E+01   5.4482726113E+01   1.0000000000E+00     0.000   1.
3000022   2   4   0   0   0   2.4700573715E+00   6.8007579119E-02   1.6886467294E+00   3.0033042180E+00   2.5000000000E-01   4.142868E+00   0.
3000001    1    5    0    0    0  -1.6855120417E+01   1.1405518573E+01  -1.9474021232E+01   2.8185429590E+01   1.0000000000E+00     0.000   1.
3000022   2   5   0   0   0   -1.8465800856E+01   2.6523040025E+01   -2.5763997509E+01   4.1331628580E+01   2.5000000000E-01   1.991979E+01   0.
13    1    7    0    0    0   1.2931470226E+00   5.3114965426E-02   9.6289404727E-01   1.6165519997E+00   1.0500000000E-01     0.000  -1.
-13    1    7    0    0    0   1.1769103489E+00   1.4892613693E-02   7.2575268209E-01   1.3867522183E+00   1.0500000000E-01     0.000   1.
13    1    9    0    0    0  -1.3265711527E+01   1.9109900918E+01  -1.8514689771E+01   2.9731669608E+01   1.0500000000E-01     0.000  -1.
-13    1    9    0    0    0  -5.2000893291E+00   7.4131391071E+00  -7.2493077384E+00   1.1599958971E+01   1.0500000000E-01     0.000   1.
</event>
<event>
 13   1  9.2978750E-05  1.2500000E+02  7.5467720E-03  1.2380620E-01
   21   -1    0    0  502  501   0.0000000000E+00   0.0000000000E+00   1.2594620150E+02   1.2594620150E+02   0.0000000000E+00     0.000  -1.
   21   -1    0    0  501  502   0.0000000000E+00   0.0000000000E+00  -3.1015226767E+01   3.1015226767E+01   0.0000000000E+00     0.000  -1.
   25    2    1    2    0    0   0.0000000000E+00   0.0000000000E+00   9.4930974734E+01   1.5696142827E+02   1.2500000000E+02  3.083E-10  -1.
3000002    2    3    0    0    0   7.3015504342E+00   3.8219115842E+01  -1.2653636803E+01   4.2120398607E+01   1.0000000000E+01  2.123E-10  -1.
3000002    2    3    0    0    0  -7.3015504342E+00  -3.8219115842E+01   1.0758461154E+02   1.1484102966E+02   1.0000000000E+01  1.980E-10  -1.
3000001    1    4    0    0    0   5.5086380068E-01   2.8227966456E+00  -4.0595283719E+00   5.0745839664E+00   1.0000000000E+00     0.000  -1.
3000022   2   4   0   0   0   6.7506866335E+00   3.5396319196E+01   -8.5941084308E+00   3.7045814641E+01   2.5000000000E-01   7.511055E+00   0.
3000001    1    5    0    0    0  -6.7968486744E-01  -2.7360232698E+01   7.6476374458E+01   8.1232260556E+01   1.0000000000E+00     0.000   1.
3000022   2   5   0   0   0   -6.6218655667E+00   -1.0858883145E+01   3.1108237078E+01   3.3608769107E+01   2.5000000000E-01   2.492588E+00   0.
13    1    7    0    0    0   3.6376560722E+00   1.9107092044E+01  -4.5701669365E+00   1.9980264235E+01   1.0500000000E-01     0.000  -1.
-13    1    7    0    0    0   3.1130305613E+00   1.6289227153E+01  -4.0239414944E+00   1.7065550406E+01   1.0500000000E-01     0.000   1.
13    1    9    0    0    0  -4.1248488718E+00  -6.8781677904E+00   1.9605655178E+01   2.1182924971E+01   1.0500000000E-01     0.000   1.
-13    1    9    0    0    0  -2.4970166949E+00  -3.9807153542E+00   1.1502581900E+01   1.2425844136E+01   1.0500000000E-01     0.000  -1.
</event>
<event>
 13   1  9.2978750E-05  1.2500000E+02  7.5467720E-03  1.2380620E-01
   21   -1    0    0  502  501   0.0000000000E+00   0.0000000000E+00   1.0733402801E+03   1.0733402801E+03   0.0000000000E+00     0.000  -1.
   21   -1    0    0  501  502   0.0000000000E+00   0.0000000000E+00  -3.6393397998E+00   3.6393397998E+00   0.0000000000E+00     0.000  -1.
   25    2    1    2    0    0   0.0000000000E+00   0.0000000000E+00   1.0697009403E+03   1.0769796199E+03   1.2500000000E+02  1.496E-09  -1.
3000002    2    3    0    0    0  -1.1273179526E+01  -5.1337749433E+00   1.4122386572E+01   2.1281024982E+01   1.0000000000E+01  4.081E-10  -1.
3000002    2    3    0    0    0   1.1273179526E+01   5.1337749433E+00   1.0555785537E+03   1.0556985949E+03   1.0000000000E+01  2.802E-10  -1.
3000001    1    4    0    0    0  -1.1971738192E+01  -4.3405558202E+00   8.0195940142E+00   1.5082334976E+01   1.0000000000E+00     0.000  -1.
3000022   2   4   0   0   0   6.9855866619E-01   -7.9321912311E-01   6.1027925582E+00   6.1986900064E+00   2.5000000000E-01   2.688964E+01   0.
3000001    1    5    0    0    0   4.4713620973E+00   7.4111130803E+00   5.4667341722E+02   5.4674284885E+02   1.0000000000E+00     0.000  -1.
3000022   2   5   0   0   0   6.8018174286E+00   -2.2773381370E+00   5.0890513651E+02   5.0895574606E+02   2.5000000000E-01   4.567466E+00   0.
13    1    7    0    0    0   4.4862747694E-01  -4.1619710274E-01   3.3681520206E+00   3.4249028709E+00   1.0500000000E-01     0.000  -1.
-13    1    7    0    0    0   2.4993118925E-01  -3.7702202037E-01   2.7346405376E+00   2.7737871355E+00   1.0500000000E-01     0.000   1.
13    1    9    0    0    0   2.4520939722E+00  -8.2225688422E-01   1.7945214080E+02   1.7947080747E+02   1.0500000000E-01     0.000  -1.
-13    1    9    0    0    0   4.3497234564E+00  -1.4550812528E+00   3.2945299570E+02   3.2948493859E+02   1.0500000000E-01     0.000   1.
</event>
<event>
 13   1  9.2978750E-05  1.2500000E+02  7.5467720E-03  1.2380620E-01
   21   -1    0    0  502  501   0.0000000000E+00   0.0000000000E+00   5.2056115415E+02   5.2056115415E+02   0.0000000000E+00     0.000   1.
   21   -1    0    0  501  502   0.0000000000E+00   0.0000000000E+00  -7.5039214295E+00   7.5039214295E+00   0.0000000000E+00     0.000   1.
   25    2    1    2    0    0   0.0000000000E+00   0.0000000000E+00   5.1305723272E+02   5.2806507558E+02   1.2500000000E+02  1.537E-08  -1.
3000002    2    3    0    0    0   2.8297796757E+01   5.0348579485E+00   2.5909451700E+01   3.9967671727E+01   1.0000000000E+01  1.618E-10  -1.
3000002    2    3    0    0    0  -2.8297796757E+01  -5.0348579485E+00   4.8714778102E+02   4.8809740385E+02   1.0000000000E+01  1.092E-10  -1.
3000001    1    4    0    0    0   8.6298120175E+00   1.1294109651E+00   2.4328603558E+00   9.0921963296E+00   1.0000000000E+00     0.000   1.
3000022   2   4   0   0   0   1.9667984739E+01   3.9054469834E+00   2.3476591344E+01   3.0875475397E+01   2.5000000000E-01   3.355061E+00   0.
3000001    1    5    0    0    0  -2.7821041246E+01  -4.5879768224E+00   4.2029440252E+02   4.2124036447E+02   1.0000000000E+00     0.000  -1.
3000022   2   5   0   0   0   -4.7675551056E-01   -4.4688112605E-01   6.6853378499E+01   6.6857039384E+01   2.5000000000E-01   4.619087E-01   0.
13    1    7    0    0    0   8.4840963802E+00   1.7510577881E+00   1.0129338415E+01   1.3328939061E+01   1.0500000000E-01     0.000   1.
-13    1    7    0    0    0   1.1183888359E+01   2.1543891953E+00   1.3347252929E+01   1.7546536336E+01   1.0500000000E-01     0.000  -1.
13    1    9    0    0    0  -3.1090791184E-01  -2.6410449279E-01   4.6179014453E+01   4.6180935631E+01   1.0500000000E-01     0.000  -1.
-13    1    9    0    0    0  -1.6584759872E-01  -1.8277663326E-01   2.0674364046E+01   2.0676103753E+01   1.0500000000E-01     0.000   1.
</event>
<event>
 13   1  9.2978750E-05  1.2500000E+02  7.5467720E-03  1.2380620E-01
   21   -1    0    0  502  501   0.0000000000E+00   0.0000000000E+00   2.9314013632E+02   2.9314013632E+02   0.0000000000E+00     0.000  -1.
   21   -1    0    0  501  502   0.0000000000E+00   0.0000000000E+00  -1.3325537912E+01   1.3325537912E+01   0.0000000000E+00     0.000  -1.
   25    2    1    2    0    0   0.0000000000E+00   0.0000000000E+00   2.7981459841E+02   3.0646567423E+02   1.2500000000E+02  1.596E-07  -1.
3000002    2    3    0    0    0  -2.8973763654E+01  -5.3481237447E+01   1.1460242151E+02   1.3012853935E+02   1.0000000000E+01  1.617E-10   1.
3000002    2    3    0    0    0   2.8973763654E+01   5.3481237447E+01   1.6521217690E+02   1.7633713488E+02   1.0000000000E+01  4.151E-12   1.
3000001    1    4    0    0    0  -1.4071274964E+01  -3.3081956227E+01   7.4591537105E+01   8.2808900576E+01   1.0000000000E+00     0.000   1.
3000022   2   4   0   0   0   -1.4902488690E+01   -2.0399281220E+01   4.0010884401E+01   4.7319638777E+01   2.5000000000E-01   7.143589E+00   0.
3000001    1    5    0    0    0   2.4148028556E+01   3.4999593430E+01   1.1291665395E+02   1.2066179827E+02   1.0000000000E+00     0.000   1.
3000022   2   5   0   0   0   4.8257350986E+00   1.8481644017E+01   5.2295522959E+01   5.5675336608E+01   2.5000000000E-01   3.151712E+00   0.
13    1    7    0    0    0  -6.4231684586E+00  -8.7122749170E+00   1.7058310712E+01   2.0202916043E+01   1.0500000000E-01     0.000  -1.
-13    1    7    0    0    0  -8.4793202315E+00  -1.1687006303E+01   2.2952573689E+01   2.7116722734E+01   1.0500000000E-01     0.000   1.
13    1    9    0    0    0   3.1337562489E+00   1.1862580747E+01   3.3723641706E+01   3.5886435949E+01   1.0500000000E-01     0.000   1.
-13    1    9    0    0    0   1.6919788497E+00   6.6190632707E+00   1.8571881253E+01   1.9788900659E+01   1.0500000000E-01     0.000  -1.
</event>
<event>
 13   1  9.2978750E-05  1.2500000E+02  7.5467720E-03  1.2380620E-01
   21   -1    0    0  502  501   0.0000000000E+00   0.0000000000E+00   1.0932826784E+02   1.0932826784E+02   0.0000000000E+00     0.000  -1.
   21   -1    0    0  501  502   0.0000000000E+00   0.0000000000E+00  -3.5729551717E+01   3.5729551717E+01   0.0000000000E+00     0.000  -1.
   25    2    1    2    0    0   0.0000000000E+00   0.0000000000E+00   7.3598716127E+01   1.4505781956E+02   1.2500000000E+02  8.746E-08  -1.
3000002    2    3    0    0    0   3.3165988846E+01   4.3858810747E+01   4.3339396825E+00   5.6056767026E+01   1.0000000000E+01  6.626E-10   1.
3000002    2    3    0    0    0  -3.3165988846E+01  -4.3858810747E+01   6.9264776444E+01   8.9001052534E+01   1.0000000000E+01  1.184E-10   1.
3000001    1    4    0    0    0   1.5455115779E+01   1.2859443174E+01   3.6078407266E-01   2.0133455929E+01   1.0000000000E+00     0.000  -1.
3000022   2   4   0   0   0   1.7710873067E+01   3.0999367572E+01   3.9731556099E+00   3.5923311097E+01   2.5000000000E-01   6.245242E+00   0.
3000001    1    5    0    0    0  -2.5057291161E+01  -3.8376553235E+01   6.0110625550E+01   7.5597056705E+01   1.0000000000E+00     0.000  -1.
3000022   2   5   0   0   0   -8.1086976850E+00   -5.4822575118E+00   9.1541508948E+00   1.3403995829E+01   2.5000000000E-01   1.105880E+01   0.
13    1    7    0    0    0   8.1833446372E+00   1.4314633418E+01   1.9023968977E+00   1.6598373363E+01   1.0500000000E-01     0.000  -1.
-13    1    7    0    0    0   9.5275284298E+00   1.6684734154E+01   2.0707587121E+00   1.9324937734E+01   1.0500000000E-01     0.000   1.
13    1    9    0    0    0  -2.5790217050E+00  -1.7709578854E+00   2.8648253134E+00   4.2433352287E+00   1.0500000000E-01     0.000  -1.
-13    1    9    0    0    0  -5.5296759800E+00  -3.7112996264E+00   6.2893255814E+00   9.1606606001E+00   1.0500000000E-01     0.000   1.
</event>
<event>
 13   1  9.2978750E-05  1.2500000E+02  7.5467720E-03  1.2380620E-01
   21   -1    0    0  502  501   0.0000000000E+00   0.0000000000E+00   1.7816113374E+02   1.7816113374E+02   0.0000000000E+00     0.000   1.
   21   -1    0    0  501  502   0.0000000000E+00   0.0000000000E+00  -2.1925376866E+01   2.1925376866E+01   0.0000000000E+00     0.000   1.
   25    2    1    2    0    0   0.0000000000E+00   0.0000000000E+00   1.5623575687E+02   2.0008651060E+02   1.2500000000E+02  6.703E-08  -1.
3000002    2    3    0    0    0  -3.5706327193E+01   1.0731511595E+01   1.5679873909E+02   1.6148049952E+02   1.0000000000E+01  3.517E-10   1.
3000002    2    3    0    0    0   3.5706327193E+01  -1.0731511595E+01  -5.6298222491E-01   3.8606011082E+01   1.0000000000E+01  3.193E-10   1.
3000001    1    4    0    0    0  -2.2331114144E+01   6.7876415732E+00   7.6776654431E+01   8.0252136437E+01   1.0000000000E+00     0.000   1.
3000022   2   4   0   0   0   -1.3375213049E+01   3.9438700220E+00   8.0022084664E+01   8.1228363081E+01   2.5000000000E-01   3.041371E+00   0.
3000001    1    5    0    0    0   1.8407398177E+01  -6.1521550791E-01   1.2227049969E+00   1.8485286183E+01   1.0000000000E+00     0.000  -1.
3000022   2   5   0   0   0   1.7298929016E+01   -1.0116296087E+01   -1.7856872219E+00   2.0120724900E+01   2.5000000000E-01   9.019176E+00   0.
13    1    7    0    0    0  -6.5894236478E+00   1.9276190678E+00   3.9784300059E+01   4.0372487853E+01   1.0500000000E-01     0.000  -1.
-13    1    7    0    0    0  -6.7857894009E+00   2.0162509542E+00   4.0237784605E+01   4.0855875228E+01   1.0500000000E-01     0.000   1.
13    1    9    0    0    0   3.9980138930E+00  -2.3281573316E+00  -4.1120541790E-01   4.6459171909E+00   1.0500000000E-01     0.000   1.
-13    1    9    0    0    0   1.3300915123E+01  -7.7881387556E+00  -1.3744818039E+00   1.5474807709E+01   1.0500000000E-01     0.000  -1.
</event>
<event>
 13   1  9.2978750E-05  1.2500000E+02  7.5467720E-03  1.2380620E-01
   21   -1    0    0  502  501   0.0000000000E+00   0.0000000000E+00   5.0985072329E+01   5.0985072329E+01   0.0000000000E+00     0.000  -1.
   21   -1    0    0  501  502   0.0000000000E+00   0.0000000000E+00  -7.6615562586E+01   7.6615562586E+01   0.0000000000E+00     0.000  -1.
   25    2    1    2    0    0   0.0000000000E+00   0.0000000000E+00  -2.5630490257E+01   1.2760063492E+02   1.2500000000E+02  2.345E-08  -1.
3000002    2    3    0    0    0  -5.2433999613E+01   3.0992972867E+01  -2.2835855769E+01   6.5813106531E+01   1.0000000000E+01  2.769E-10   1.
3000002    2    3    0    0    0   5.2433999613E+01  -3.0992972867E+01  -2.7946344882E+00   6.1787528389E+01   1.0000000000E+01  1.830E-09   1.
3000001    1    4    0    0    0  -1.6204435131E+01   5.2094802607E+00  -8.7660467670E+00   1.9172010286E+01   1.0000000000E+00     0.000   1.
3000022   2   4   0   0   0   -3.6229564482E+01   2.5783492607E+01   -1.4069809002E+01   4.6641096244E+01   2.5000000000E-01   1.164640E+01   0.
3000001    1    5    0    0    0   1.0476494418E+01  -8.0149820291E+00   3.1017856572E+00   1.3587418684E+01   1.0000000000E+00     0.000   1.
3000022   2   5   0   0   0   4.1957505195E+01   -2.2977990838E+01   -5.8964201454E+00   4.8200109706E+01   2.5000000000E-01   3.091441E+00   0.
13    1    7    0    0    0  -1.8917400042E+01   1.3454220385E+01  -7.4155009016E+00   2.4369750699E+01   1.0500000000E-01     0.000  -1.
-13    1    7    0    0    0  -1.7312164440E+01   1.2329272221E+01  -6.6543081002E+00   2.2271345545E+01   1.0500000000E-01     0.000   1.
13    1    9    0    0    0   1.4711016364E+01  -8.1064766878E+00  -2.0341620103E+00   1.6919746063E+01   1.0500000000E-01     0.000   1.
-13    1    9    0    0    0   2.7246488830E+01  -1.4871514150E+01  -3.8622581351E+00   3.1280363643E+01   1.0500000000E-01     0.000  -1.
</event>
<event>
 13   1  9.2978750E-05  1.2500000E+02  7.5467720E-03  1.2380620E-01
   21   -1    0    0  502  501   0.0000000000E+00   0.0000000000E+00   8.1796659685E+01   8.1796659685E+01   0.0000000000E+00     0.000   1.
   21   -1    0    0  501  502   0.0000000000E+00   0.0000000000E+00  -4.7755617590E+01   4.7755617590E+01   0.0000000000E+00     0.000   1.
   25    2    1    2    0    0   0.0000000000E+00   0.0000000000E+00   3.4041042095E+01   1.2955227727E+02   1.2500000000E+02  2.948E-08  -1.
3000002    2    3    0    0    0   3.2135784616E+01   1.2696754252E+01  -3.5951845001E+01   5.0857166460E+01   1.0000000000E+01  3.607E-10  -1.
3000002    2    3    0    0    0  -3.2135784616E+01  -1.2696754252E+01   6.9992887096E+01   7.8695110810E+01   1.0000000000E+01  6.879E-11  -1.
3000001    1    4    0    0    0   3.0542399846E+01   1.0292405574E+01  -2.9164172204E+01   4.3477818956E+01   1.0000000000E+00     0.000  -1.
3000022   2   4   0   0   0   1.5933847699E+00   2.4043486776E+00   -6.7876727966E+00   7.3793475039E+00   2.5000000000E-01   9.106424E+00   0.
3000001    1    5    0    0    0  -3.2808523571E+01  -1.2157138228E+01   6.7330505195E+01   7.5885388307E+01   1.0000000000E+00     0.000  -1.
3000022   2   5   0   0   0   6.7273895502E-01   -5.3961602372E-01   2.6623819010E+00   2.8097225026E+00   2.5000000000E-01   1.001867E+01   0.
13    1    7    0    0    0   7.9992040909E-01   1.0862825206E+00  -3.1955281427E+00   3.4702028019E+00   1.0500000000E-01     0.000   1.
-13    1    7    0    0    0   7.9346436081E-01   1.3180661570E+00  -3.5921446539E+00   3.9091447020E+00   1.0500000000E-01     0.000  -1.
13    1    9    0    0    0   2.2305817760E-01  -2.5535156915E-01   9.9868479447E-01   1.0598847547E+00   1.0500000000E-01     0.000   1.
-13    1    9    0    0    0   4.4968077741E-01  -2.8426445457E-01   1.6636971066E+00   1.7498377479E+00   1.0500000000E-01     0.000  -1.
</event>
<event>
 13   1  9.2978750E-05  1.2500000E+02  7.5467720E-03  1.2380620E-01
   21   -1    0    0  502  501   0.0000000000E+00   0.0000000000E+00   2.6469720486E+02   2.6469720486E+02   0.0000000000E+00     0.000   1.
   21   -1    0    0  501  502   0.0000000000E+00   0.0000000000E+00  -1.4757428217E+01   1.4757428217E+01   0.0000000000E+00     0.000   1.
   25    2    1    2    0    0   0.0000000000E+00   0.0000000000E+00   2.4993977664E+02   2.7945463307E+02   1.2500000000E+02  1.148E-07  -1.
3000002    2    3    0    0    0  -5.6359826541E+01   4.6520816471E-01   1.8106627388E+02   1.8989903107E+02   1.0000000000E+01  1.908E-11   1.
3000002    2    3    0    0    0   5.6359826541E+01  -4.6520816471E-01   6.8873502764E+01   8.9555601999E+01   1.0000000000E+01  3.118E-10   1.
3000001    1    4    0    0    0  -4.6565053070E+01   1.0117613089E+00   1.3540341640E+02   1.4319362068E+02   1.0000000000E+00     0.000   1.
3000022   2   4   0   0   0   -9.7947734717E+00   -5.4655314418E-01   4.5662857472E+01   4.6705410395E+01   2.5000000000E-01   1.679796E+01   0.
3000001    1    5    0    0    0   5.2305743683E+01  -2.7863726267E+00   6.1123086538E+01   8.0502710529E+01   1.0000000000E+00     0.000   1.
3000022   2   5   0   0   0   4.0540828581E+00   2.3211644620E+00   7.7504162262E+00   9.0528914695E+00   2.5000000000E-01   1.995370E+00   0.
13    1    7    0    0    0  -5.8260805095E+00  -3.1958244528E-01   2.6855388925E+01   2.7482144864E+01   1.0500000000E-01     0.000  -1.
-13    1    7    0    0    0  -3.9686929622E+00  -2.2697069890E-01   1.8807468547E+01   1.9223265531E+01   1.0500000000E-01     0.000   1.
13    1    9    0    0    0   2.9011708490E+00   1.6776214124E+00   5.6288198835E+00   6.5517817561E+00   1.0500000000E-01     0.000   1.
-13    1    9    0    0    0   1.1529120091E+00   6.4354304957E-01   2.1215963426E+00   2.5011097134E+00   1.0500000000E-01     0.000  -1.
</event>
<event>
 13   1  9.2978750E-05  1.2500000E+02  7.5467720E-03  1.2380620E-01
   21   -1    0    0  502  501   0.0000000000E+00   0.0000000000E+00   2.7496435955E+01   2.7496435955E+01   0.0000000000E+00     0.000  -1.
   21   -1    0    0  501  502   0.0000000000E+00   0.0000000000E+00  -1.4206386626E+02   1.4206386626E+02   0.0000000000E+00     0.000  -1.
   25    2    1    2    0    0   0.0000000000E+00   0.0000000000E+00  -1.1456743030E+02   1.6956030221E+02   1.2500000000E+02  3.350E-08  -1.
3000002    2    3    0    0    0   4.8331035452E+01  -2.5650034190E+01  -1.8619522042E+01   5.8655774165E+01   1.0000000000E+01  8.993E-10  -1.
3000002    2    3    0    0    0  -4.8331035452E+01   2.5650034190E+01  -9.5947908258E+01   1.1090452805E+02   1.0000000000E+01  1.482E-09  -1.
3000001    1    4    0    0    0   4.7455156841E+01  -2.3650978154E+01  -1.6344574671E+01   5.5493295087E+01   1.0000000000E+00     0.000  -1.
3000022   2   4   0   0   0   8.7587861091E-01   -1.9990560359E+00   -2.2749473712E+00   3.1624790777E+00   2.5000000000E-01   2.791082E+00   0.
3000001    1    5    0    0    0  -2.1886844526E+01   1.4722131261E+01  -3.7890146168E+01   4.6178331378E+01   1.0000000000E+00     0.000  -1.
3000022   2   5   0   0   0   -2.6444190926E+01   1.0927902929E+01   -5.8057762090E+01   6.4726196668E+01   2.5000000000E-01   1.385806E+00   0.
13    1    7    0    0    0   6.3286520559E-01  -1.3293517791E+00  -1.4936752537E+00   2.0999488766E+00   1.0500000000E-01     0.000  -1.
-13    1    7    0    0    0   2.4301340532E-01  -6.6970425681E-01  -7.8127211748E-01   1.0625302011E+00   1.0500000000E-01     0.000   1.
13    1    9    0    0    0  -1.6604383410E+01   6.7984633258E+00  -3.6435414328E+01   4.0613730366E+01   1.0500000000E-01     0.000  -1.
-13    1    9    0    0    0  -9.8398075155E+00   4.1294396034E+00  -2.1622347762E+01   2.4112466302E+01   1.0500000000E-01     0.000   1.
</event>
<event>
 13   1  9.2978750E-05  1.2500000E+02  7.5467720E-03  1.2380620E-01
   21   -1    0    0  502  501   0.0000000000E+00   0.0000000000E+00   1.1676102699E+01   1.1676102699E+01   0.0000000000E+00     0.000  -1.
   21   -1    0    0  501  502   0.0000000000E+00   0.0000000000E+00  -3.3455084291E+02   3.3455084291E+02   0.0000000000E+00     0.000  -1.
   25    2    1    2    0    0   0.0000000000E+00   0.0000000000E+00  -3.2287474021E+02   3.4622694561E+02   1.2500000000E+02  1.327E-07  -1.
3000002    2    3    0    0    0  -3.0097665685E+01   4.3209543327E+01  -2.5047373169E+02   2.5614453807E+02   1.0000000000E+01  2.648E-10   1.
3000002    2    3    0    0    0   3.0097665685E+01  -4.3209543327E+01  -7.2401008520E+01   9.0082407544E+01   1.0000000000E+01  4.672E-10   1.
3000001    1    4    0    0    0  -2.7167891197E+01   3.2045300375E+01  -1.9999444939E+02   2.0436187358E+02   1.0000000000E+00     0.000   1.
3000022   2   4   0   0   0   -2.9297744878E+00   1.1164242952E+01   -5.0479282301E+01   5.1782664482E+01   2.5000000000E-01   1.047449E+01   0.
3000001    1    5    0    0    0   5.5829666532E+00  -1.3744862076E+01  -1.5532349884E+01   2.1502200889E+01   1.0000000000E+00     0.000   1.
3000022   2   5   0   0   0   2.4514699032E+01   -2.9464681252E+01   -5.6868658636E+01   6.8580206655E+01   2.5000000000E-01   2.528218E+00   0.
13    1    7    0    0    0  -1.9480821545E+00   7.3486046753E+00  -3.3476489823E+01   3.4329046165E+01   1.0500000000E-01     0.000  -1.
-13    1    7    0    0    0  -9.8169233323E-01   3.8156382767E+00  -1.7002792478E+01   1.7453618316E+01   1.0500000000E-01     0.000   1.
13    1    9    0    0    0   1.2980139180E+01  -1.5688783499E+01  -3.0144242145E+01   3.6377304742E+01   1.0500000000E-01     0.000   1.
-13    1    9    0    0    0   1.1534559852E+01  -1.3775897753E+01  -2.6724416490E+01   3.2202901913E+01   1.0500000000E-01     0.000  -1.
</event>
<event>
 13   1  9.2978750E-05  1.2500000E+02  7.5467720E-03  1.2380620E-01
   21   -1    0    0  502  501   0.0000000000E+00   0.0000000000E+00   5.2719895803E+01   5.2719895803E+01   0.0000000000E+00     0.000  -1.
   21   -1    0    0  501  502   0.0000000000E+00   0.0000000000E+00  -7.4094418066E+01   7.4094418066E+01   0.0000000000E+00     0.000  -1.
   25    2    1    2    0    0   0.0000000000E+00   0.0000000000E+00  -2.1374522263E+01   1.2681431387E+02   1.2500000000E+02  2.419E-09  -1.
3000002    2    3    0    0    0  -3.8649005575E+01   1.7681501340E+01  -5.6056242059E+01   7.1054087816E+01   1.0000000000E+01  2.956E-10   1.
3000002    2    3    0    0    0   3.8649005575E+01  -1.7681501340E+01   3.4681719796E+01   5.5760226054E+01   1.0000000000E+01  1.174E-10   1.
3000001    1    4    0    0    0  -1.7274383556E+01   6.5187041220E+00  -1.6801779268E+01   2.4983947191E+01   1.0000000000E+00     0.000  -1.
3000022   2   4   0   0   0   -2.1374622019E+01   1.1162797218E+01   -3.9254462791E+01   4.6070140625E+01   2.5000000000E-01   4.172000E-01   0.
3000001    1    5    0    0    0   8.5214703939E+00   3.6618011762E-02   8.6101093631E+00   1.2155277940E+01   1.0000000000E+00     0.000  -1.
3000022   2   5   0   0   0   3.0127535181E+01   -1.7718119352E+01   2.6071610433E+01   4.3604948114E+01   2.5000000000E-01   1.753191E+00   0.
13    1    7    0    0    0  -8.3914187060E+00   4.4187680986E+00  -1.5540651973E+01   1.8206161269E+01   1.0500000000E-01     0.000  -1.
-13    1    7    0    0    0  -1.2983203313E+01   6.7440291198E+00  -2.3713810819E+01   2.7863979356E+01   1.0500000000E-01     0.000   1.
13    1    9    0    0    0   9.3061663727E+00  -5.5289588936E+00   8.0785866286E+00   1.3507357474E+01   1.0500000000E-01     0.000  -1.
-13    1    9    0    0    0   2.0821368808E+01  -1.2189160459E+01   1.7993023805E+01   3.0097590640E+01   1.0500000000E-01     0.000   1.
</event>
<event>
 13   1  9.2978750E-05  1.2500000E+02  7.5467720E-03  1.2380620E-01
   21   -1    0    0  502  501   0.0000000000E+00   0.0000000000E+00   1.9409829140E+02   1.9409829140E+02   0.0000000000E+00     0.000  -1.
   21   -1    0    0  501  502   0.0000000000E+00   0.0000000000E+00  -2.0125112755E+01   2.0125112755E+01   0.0000000000E+00     0.000  -1.
   25    2    1    2    0    0   0.0000000000E+00   0.0000000000E+00   1.7397317864E+02   2.1422340415E+02   1.2500000000E+02  6.813E-09  -1.
3000002    2    3    0    0    0   4.8628541983E+01  -2.1881699381E+01   1.4016113320E+02   1.5029533301E+02   1.0000000000E+01  1.241E-10   1.
3000002    2    3    0    0    0  -4.8628541983E+01   2.1881699381E+01   3.3812045436E+01   6.3928071141E+01   1.0000000000E+01  1.038E-09   1.
3000001    1    4    0    0    0   7.8716369429E-01  -1.8226891050E+00   8.4080704432E+00   8.6969805584E+00   1.0000000000E+00     0.000  -1.
3000022   2   4   0   0   0   4.7841378289E+01   -2.0059010276E+01   1.3175306276E+02   1.4159835245E+02   2.5000000000E-01   5.601044E+00   0.
3000001    1    5    0    0    0  -4.3304023371E+01   1.9381261052E+01   2.5887931917E+01   5.4056051826E+01   1.0000000000E+00     0.000  -1.
3000022   2   5   0   0   0   -5.3245186129E+00   2.5004383289E+00   7.9241135194E+00   9.8720193154E+00   2.5000000000E-01   6.933088E+00   0.
13    1    7    0    0    0   3.0368373204E+01  -1.2775870238E+01   8.3556322544E+01   8.9817208894E+01   1.0500000000E-01     0.000   1.
-13    1    7    0    0    0   1.7473005085E+01  -7.2831400383E+00   4.8196740216E+01   5.1781143556E+01   1.0500000000E-01     0.000  -1.
13    1    9    0    0    0  -2.9404247335E+00   1.3891124421E+00   4.2691695477E+00   5.3677336574E+00   1.0500000000E-01     0.000  -1.
-13    1    9    0    0    0  -2.3840938794E+00   1.1113258868E+00   3.6549439717E+00   4.5042856580E+00   1.0500000000E-01     0.000   1.
</event>
<event>
 13   1  9.2978750E-05  1.2500000E+02  7.5467720E-03  1.2380620E-01
   21   -1    0    0  502  501   0.0000000000E+00   0.0000000000E+00   2.1026108227E+01   2.1026108227E+01   0.0000000000E+00     0.000   1.
   21   -1    0    0  501  502   0.0000000000E+00   0.0000000000E+00  -1.8578093282E+02   1.8578093282E+02   0.0000000000E+00     0.000   1.
   25    2    1    2    0    0   0.0000000000E+00   0.0000000000E+00  -1.6475482460E+02   2.0680704105E+02   1.2500000000E+02  3.752E-08  -1.
3000002    2    3    0    0    0   1.7034164295E+01  -4.1107726916E+00   1.5490200559E+01   2.5436342479E+01   1.0000000000E+01  7.506E-11   1.
3000002    2    3    0    0    0  -1.7034164295E+01   4.1107726916E+00  -1.8024502516E+02   1.8137069857E+02   1.0000000000E+01  2.572E-10   1.
3000001    1    4    0    0    0   5.9571815591E+00   2.4050119264E+00   1.9986076956E+00   6.8019502508E+00   1.0000000000E+00     0.000  -1.
3000022   2   4   0   0   0   1.1076982736E+01   -6.5157846180E+00   1.3491592864E+01   1.8634392228E+01   2.5000000000E-01   1.066186E+01   0.
3000001    1    5    0    0    0  -1.2980083306E+01  -7.0190762661E-01  -1.4339082178E+02   1.4398230102E+02   1.0000000000E+00     0.000   1.
3000022   2   5   0   0   0   -4.0540809889E+00   4.8126803182E+00   -3.6854203378E+01   3.7388397547E+01   2.5000000000E-01   3.022769E+00   0.
13    1    7    0    0    0   6.7213824487E+00  -3.8945984298E+00   8.2072809169E+00   1.1301122245E+01   1.0500000000E-01     0.000   1.
-13    1    7    0    0    0   4.3556002872E+00  -2.6211861882E+00   5.2843119469E+00   7.3332699832E+00   1.0500000000E-01     0.000  -1.
13    1    9    0    0    0  -1.9487212043E+00   2.2185669547E+00  -1.7123269103E+01   1.7376332278E+01   1.0500000000E-01     0.000   1.
-13    1    9    0    0    0  -2.1053597846E+00   2.5941133635E+00  -1.9730934275E+01   2.0012065269E+01   1.0500000000E-01     0.000  -1.
</event>
<event>
 13   1  9.2978750E-05  1.2500000E+02  7.5467720E-03  1.2380620E-01
   21   -1    0    0  502  501   0.0000000000E+00   0.0000000000E+00   2.4173244223E+02   2.4173244223E+02   0.0000000000E+00     0.000  -1.
   21   -1    0    0  501  502   0.0000000000E+00   0.0000000000E+00  -1.6159394924E+01   1.6159394924E+01   0.0000000000E+00     0.000  -1.
   25    2    1    2    0    0   0.0000000000E+00   0.0000000000E+00   2.2557304731E+02   2.5789183715E+02   1.2500000000E+02  9.102E-08  -1.
3000002    2    3    0    0    0   1.2410474395E+01  -5.1683280799E+01   4.8164988162E+01   7.2422699988E+01   1.0000000000E+01  1.402E-09   1.
3000002    2    3    0    0    0  -1.2410474395E+01   5.1683280799E+01   1.7740805915E+02   1.8546913716E+02   1.0000000000E+01  2.854E-10   1.
3000001    1    4    0    0    0   9.3374936023E+00  -2.2472535393E+01   1.7732154865E+01   3.0126947238E+01   1.0000000000E+00     0.000  -1.
3000022   2   4   0   0   0   3.0729807929E+00   -2.9210745407E+01   3.0432833297E+01   4.2295752749E+01   2.5000000000E-01   8.162728E+00   0.
3000001    1    5    0    0    0  -2.5258998156E+00   2.1309575301E+01   8.5930988630E+01   8.8575464867E+01   1.0000000000E+00     0.000  -1.
3000022   2   5   0   0   0   -9.8845745796E+00   3.0373705499E+01   9.1477070518E+01   9.6893672296E+01   2.5000000000E-01   2.275198E+00   0.
13    1    7    0    0    0   8.4775535389E-01  -7.8282179661E+00   8.1219238852E+00   1.1312663624E+01   1.0500000000E-01     0.000   1.
-13    1    7    0    0    0   2.2252254390E+00  -2.1382527440E+01   2.2310909412E+01   3.0983089126E+01   1.0500000000E-01     0.000  -1.
13    1    9    0    0    0  -7.0213508553E+00   2.1622330494E+01   6.5226572889E+01   6.9074896885E+01   1.0500000000E-01     0.000  -1.
-13    1    9    0    0    0  -2.8632237242E+00   8.7513750046E+00   2.6250497630E+01   2.7818775411E+01   1.0500000000E-01     0.000   1.
</event>
<event>
 13   1  9.2978750E-05  1.2500000E+02  7.5467720E-03  1.2380620E-01
   21   -1    0    0  502  501   0.0000000000E+00   0.0000000000E+00   6.9563373396E+00   6.9563373396E+00   0.0000000000E+00     0.000   1.
   21   -1    0    0  501  502   0.0000000000E+00   0.0000000000E+00  -5.6153832244E+02   5.6153832244E+02   0.0000000000E+00     0.000   1.
   25    2    1    2    0    0   0.0000000000E+00   0.0000000000E+00  -5.5458198510E+02   5.6849465978E+02   1.2500000000E+02  8.304E-08  -1.
3000002    2    3    0    0    0   2.0525315786E+01  -4.5439752050E+00  -5.4108481354E+02   5.4158536884E+02   1.0000000000E+01  1.172E-09   1.
3000002    2    3    0    0    0  -2.0525315786E+01   4.5439752050E+00  -1.3497171561E+01   2.6909290940E+01   1.0000000000E+01  9.796E-10   1.
3000001    1    4    0    0    0   4.5687346308E+00  -6.9854295136E-01  -2.4517127971E+02   2.4521687889E+02   1.0000000000E+00     0.000  -1.
3000022   2   4   0   0   0   1.5956581155E+01   -3.8454322536E+00   -2.9591353383E+02   2.9636848995E+02   2.5000000000E-01   7.233160E+00   0.
3000001    1    5    0    0    0  -1.8672306437E+01   6.4884376847E+00  -1.3894076128E+01   2.4182642592E+01   1.0000000000E+00     0.000   1.
3000022   2   5   0   0   0   -1.8530093483E+00   -1.9444624797E+00   3.9690456721E-01   2.7266483483E+00   2.5000000000E-01   1.870053E+01   0.
13    1    7    0    0    0   7.9791799668E+00  -1.9757193109E+00  -1.4739560239E+02   1.4762467751E+02   1.0500000000E-01     0.000   1.
-13    1    7    0    0    0   7.9774011881E+00  -1.8697129427E+00  -1.4851793144E+02   1.4874381244E+02   1.0500000000E-01     0.000  -1.
13    1    9    0    0    0  -1.3242656311E+00  -1.4197904162E+00   3.1950985037E-01   1.9704303673E+00   1.0500000000E-01     0.000  -1.
-13    1    9    0    0    0  -5.2874371719E-01  -5.2467206345E-01   7.7394716835E-02   7.5621798102E-01   1.0500000000E-01     0.000   1.
</event>
<event>
 13   1  9.2978750E-05  1.2500000E+02  7.5467720E-03  1.2380620E-01
   21   -1    0    0  502  501   0.0000000000E+00   0.0000000000E+00   2.3296498141E+02   2.3296498141E+02   0.0000000000E+00     0.000   1.
   21   -1    0    0  501  502   0.0000000000E+00   0.0000000000E+00  -1.6767541527E+01   1.6767541527E+01   0.0000000000E+00     0.000   1.
   25    2    1    2    0    0   0.0000000000E+00   0.0000000000E+00   2.1619743988E+02   2.4973252293E+02   1.2500000000E+02  6.776E-09  -1.
3000002    2    3    0    0    0  -6.5864055369E+00  -5.4503867378E+01   1.6433050638E+02   1.7354701849E+02   1.0000000000E+01  5.056E-10   1.
3000002    2    3    0    0    0   6.5864055369E+00   5.4503867378E+01   5.1866933496E+01   7.6185504444E+01   1.0000000000E+01  1.305E-10   1.
3000001    1    4    0    0    0   9.1831943411E-01  -1.5125545948E+00   9.8613374376E+00   1.0068619967E+01   1.0000000000E+00     0.000  -1.
3000022   2   4   0   0   0   -7.5047249710E+00   -5.2991312783E+01   1.5446916895E+02   1.6347839852E+02   2.5000000000E-01   6.764023E-01   0.
3000001    1    5    0    0    0  -7.5115625200E-01   3.3893016393E+01   3.2163214343E+01   4.6741557022E+01   1.0000000000E+00     0.000   1.
3000022   2   5   0   0   0   7.3375617889E+00   2.0610850985E+01   1.9703719153E+01   2.9443947422E+01   2.5000000000E-01   3.927787E-01   0.
13    1    7    0    0    0  -2.1863008039E+00  -1.5444660669E+01   4.5153805964E+01   4.7772321196E+01   1.0500000000E-01     0.000   1.
-13    1    7    0    0    0  -5.3184241671E+00  -3.7546652114E+01   1.0931536298E+02   1.1570607732E+02   1.0500000000E-01     0.000  -1.
13    1    9    0    0    0   2.6450910562E+00   7.2632089142E+00   6.9465803616E+00   1.0393108974E+01   1.0500000000E-01     0.000   1.
-13    1    9    0    0    0   4.6924707327E+00   1.3347642071E+01   1.2757138792E+01   1.9050838448E+01   1.0500000000E-01     0.000  -1.
</event>
<event>
 13   1  9.2978750E-05  1.2500000E+02  7.5467720E-03  1.2380620E-01
   21   -1    0    0  502  501   0.0000000000E+00   0.0000000000E+00   5.6278835451E+01   5.6278835451E+01   0.0000000000E+00     0.000   1.
   21   -1    0    0  501  502   0.0000000000E+00   0.0000000000E+00  -6.9408863362E+01   6.9408863362E+01   0.0000000000E+00     0.000   1.
   25    2    1    2    0    0   0.0000000000E+00   0.0000000000E+00  -1.3130027911E+01   1.2568769881E+02   1.2500000000E+02  5.396E-08  -1.
3000002    2    3    0    0    0  -2.9321146228E+00   1.9809059432E+01  -6.5240609915E+01   6.8973424693E+01   1.0000000000E+01  3.000E-11  -1.
3000002    2    3    0    0    0   2.9321146228E+00  -1.9809059432E+01   5.2110582004E+01   5.6714274117E+01   1.0000000000E+01  9.973E-10  -1.
3000001    1    4    0    0    0  -3.9552269513E+00   3.0082323731E+00  -2.1887336591E+01   2.2466614905E+01   1.0000000000E+00     0.000   1.
3000022   2   4   0   0   0   1.0231123286E+00   1.6800827059E+01   -4.3353273325E+01   4.6506809788E+01   2.5000000000E-01   2.863576E+00   0.
3000001    1    5    0    0    0   2.4059890070E+00  -2.0855310334E+01   5.0565355687E+01   5.4759364021E+01   1.0000000000E+00     0.000  -1.
3000022   2   5   0   0   0   5.2612561572E-01   1.0462509011E+00   1.5452263177E+00   1.9549100963E+00   2.5000000000E-01   1.305713E+00   0.
13    1    7    0    0    0   4.3634806233E-01   6.5629546499E+00  -1.7080506339E+01   1.8303483143E+01   1.0500000000E-01     0.000  -1.
-13    1    7    0    0    0   5.8676426626E-01   1.0237872409E+01  -2.6272766986E+01   2.8203326646E+01   1.0500000000E-01     0.000   1.
13    1    9    0    0    0   3.0811961215E-01   5.7120423229E-01   7.4811297019E-01   9.9594677897E-01   1.0500000000E-01     0.000   1.
-13    1    9    0    0    0   2.1800600357E-01   4.7504666882E-01   7.9711334750E-01   9.5896331729E-01   1.0500000000E-01     0.000  -1.
</event>
<event>
 13   1  9.2978750E-05  1.2500000E+02  7.5467720E-03  1.2380620E-01
   21   -1    0    0  502  501   0.0000000000E+00   0.0000000000E+00   1.7755631899E+02   1.7755631899E+02   0.0000000000E+00     0.000   1.
   21   -1    0    0  501  502   0.0000000000E+00   0.0000000000E+00  -2.2000061853E+01   2.2000061853E+01   0.0000000000E+00     0.000   1.
   25    2    1    2    0    0   0.0000000000E+00   0.0000000000E+00   1.5555625713E+02   1.9955638084E+02   1.2500000000E+02  4.966E-08  -1.
3000002    2    3    0    0    0  -2.7840996466E+01  -5.4640577894E+01   6.7005198881E+01   9.1380580617E+01   1.0000000000E+01  4.225E-10  -1.
3000002    2    3    0    0    0   2.7840996466E+01   5.4640577894E+01   8.8551058249E+01   1.0817580022E+02   1.0000000000E+01  4.875E-10  -1.
3000001    1    4    0    0    0  -1.5516641500E+00  -1.1244958029E+01   1.2480891977E+01   1.6900574170E+01   1.0000000000E+00     0.000   1.
3000022   2   4   0   0   0   -2.6289332316E+01   -4.3395619865E+01   5.4524306903E+01   7.4480006447E+01   2.5000000000E-01   7.054629E+00   0.
3000001    1    5    0    0    0   4.0617157510E+00   1.7795639989E+01   2.5746210581E+01   3.1576093754E+01   1.0000000000E+00     0.000  -1.
3000022   2   5   0   0   0   2.3779280715E+01   3.6844937905E+01   6.2804847668E+01   7.6599706469E+01   2.5000000000E-01   5.189916E+00   0.
13    1    7    0    0    0  -1.6841070442E+01  -2.7890337321E+01   3.5060993876E+01   4.7862061031E+01   1.0500000000E-01     0.000   1.
-13    1    7    0    0    0  -9.4482618737E+00  -1.5505282544E+01   1.9463313027E+01   2.6617945416E+01   1.0500000000E-01     0.000  -1.
13    1    9    0    0    0   6.0717631762E+00   9.4618770694E+00   1.6091631283E+01   1.9630207541E+01   1.0500000000E-01     0.000   1.
-13    1    9    0    0    0   1.7707517539E+01   2.7383060836E+01   4.6713216385E+01   5.6969498929E+01   1.0500000000E-01     0.000  -1.
</event>
<event>
 13   1  9.2978750E-05  1.2500000E+02  7.5467720E-03  1.2380620E-01
   21   -1    0    0  502  501   0.0000000000E+00   0.0000000000E+00   2.2771983872E+02   2.2771983872E+02   0.0000000000E+00     0.000   1.
   21   -1    0    0  501  502   0.0000000000E+00   0.0000000000E+00  -1.7153753586E+01   1.7153753586E+01   0.0000000000E+00     0.000   1.
   25    2    1    2    0    0   0.0000000000E+00   0.0000000000E+00   2.1056608514E+02   2.4487359231E+02   1.2500000000E+02  2.659E-08  -1.
3000002    2    3    0    0    0   4.4543042781E+01   4.2157256803E+01   1.1841455756E+02   1.3372854745E+02   1.0000000000E+01  5.794E-11   1.
3000002    2    3    0    0    0  -4.4543042781E+01  -4.2157256803E+01   9.2151527580E+01   1.1114504486E+02   1.0000000000E+01  4.823E-11   1.
3000001    1    4    0    0    0   1.5950126072E+01   1.1168999977E+01   3.0076395701E+01   3.5843307054E+01   1.0000000000E+00     0.000   1.
3000022   2   4   0   0   0   2.8592916709E+01   3.0988256826E+01   8.8338161859E+01   9.7885240398E+01   2.5000000000E-01   9.717029E+00   0.
3000001    1    5    0    0    0  -5.3481809317E+00  -4.5592019293E+00   1.6990414960E+01   1.8413678666E+01   1.0000000000E+00     0.000  -1.
3000022   2   5   0   0   0   -3.9194861849E+01   -3.7598054873E+01   7.5161112620E+01   9.2731366193E+01   2.5000000000E-01   1.602046E+00   0.
13    1    7    0    0    0   1.8087271021E+01   1.9515835106E+01   5.5727348888E+01   6.1754073808E+01   1.0500000000E-01     0.000   1.
-13    1    7    0    0    0   1.0505645687E+01   1.1472421720E+01   3.2610812972E+01   3.6131166589E+01   1.0500000000E-01     0.000  -1.
13    1    9    0    0    0  -1.1716730337E+01  -1.1211220321E+01   2.2511027448E+01   2.7744019404E+01   1.0500000000E-01     0.000  -1.
-13    1    9    0    0    0  -2.7478131512E+01  -2.6386834552E+01   5.2650085172E+01   6.4987346789E+01   1.0500000000E-01     0.000   1.
</event>
<event>
 13   1  9.2978750E-05  1.2500000E+02  7.5467720E-03  1.2380620E-01
   21   -1    0    0  502  501   0.0000000000E+00   0.0000000000E+00   1.6825065148E+02   1.6825065148E+02   0.0000000000E+00     0.000   1.
   21   -1    0    0  501  502   0.0000000000E+00   0.0000000000E+00  -2.3216849181E+01   2.3216849181E+01   0.0000000000E+00     0.000   1.
   25    2    1    2    0    0   0.0000000000E+00   0.0000000000E+00   1.4503380230E+02   1.9146750066E+02   1.2500000000E+02  1.125E-09  -1.
3000002    2    3    0    0    0   4.3047326657E+01  -3.4191578407E+01   2.9625072951E+01   6.3243824312E+01   1.0000000000E+01  4.966E-10   1.
3000002    2    3    0    0    0  -4.3047326657E+01   3.4191578407E+01   1.1540872935E+02   1.2822367635E+02   1.0000000000E+01  3.878E-10   1.
3000001    1    4    0    0    0   3.5427383526E+01  -2.9950595852E+01   2.8479675427E+01   5.4444739028E+01   1.0000000000E+00     0.000  -1.
3000022   2   4   0   0   0   7.6199431310E+00   -4.2409825552E+00   1.1453975240E+00   8.7990852843E+00   2.5000000000E-01   5.228678E-01   0.
3000001    1    5    0    0    0  -2.3253807305E+01   1.9984884568E+01   7.5082609338E+01   8.1108158593E+01   1.0000000000E+00     0.000   1.
3000022   2   5   0   0   0   -1.9793519352E+01   1.4206693839E+01   4.0326120011E+01   4.7115517755E+01   2.5000000000E-01   2.109789E+00   0.
13    1    7    0    0    0   4.2201091036E+00  -2.2835963748E+00   5.9519007467E-01   4.8362598643E+00   1.0500000000E-01     0.000  -1.
-13    1    7    0    0    0   3.3998340273E+00  -1.9573861803E+00   5.5020744931E-01   3.9628254200E+00   1.0500000000E-01     0.000   1.
13    1    9    0    0    0  -1.5200546747E+01   1.0897661863E+01   3.0946741406E+01   3.6159749503E+01   1.0500000000E-01     0.000   1.
-13    1    9    0    0    0  -4.5929726053E+00   3.3090319758E+00   9.3793786047E+00   1.0955768251E+01   1.0500000000E-01     0.000  -1.
</event>
<event>
 13   1  9.2978750E-05  1.2500000E+02  7.5467720E-03  1.2380620E-01
   21   -1    0    0  502  501   0.0000000000E+00   0.0000000000E+00   1.9214015794E+01   1.9214015794E+01   0.0000000000E+00     0.000   1.
   21   -1    0    0  501  502   0.0000000000E+00   0.0000000000E+00  -2.0330211247E+02   2.0330211247E+02   0.0000000000E+00     0.000   1.
   25    2    1    2    0    0   0.0000000000E+00   0.0000000000E+00  -1.8408809668E+02   2.2251612827E+02   1.2500000000E+02  1.383E-07  -1.
3000002    2    3    0    0    0  -2.6938261347E+00  -1.0738256295E+00   1.7659285358E+01   2.0500247805E+01   1.0000000000E+01  7.793E-12  -1.
3000002    2    3    0    0    0   2.6938261347E+00   1.0738256295E+00  -2.0174738204E+02   2.0201588046E+02   1.0000000000E+01  2.477E-10  -1.
3000001    1    4    0    0    0  -5.3746227904E+00   2.1407867319E+00   1.2797557458E+01   1.4080021834E+01   1.0000000000E+00     0.000  -1.
3000022   2   4   0   0   0   2.6807966557E+00   -3.2146123614E+00   4.8617279004E+00   6.4202259712E+00   2.5000000000E-01   1.330324E-01   0.
3000001    1    5    0    0    0   3.5967442971E+00   5.0244561930E+00  -1.3510706376E+02   1.3525198856E+02   1.0000000000E+00     0.000  -1.
3000022   2   5   0   0   0   -9.0291816243E-01   -3.9506305635E+00   -6.6640318273E+01   6.6763891908E+01   2.5000000000E-01   8.089922E+00   0.
13    1    7    0    0    0   1.4342162427E+00  -1.6382392166E+00   2.4621172385E+00   3.2884419195E+00   1.0500000000E-01     0.000   1.
-13    1    7    0    0    0   1.2465804130E+00  -1.5763731448E+00   2.3996106619E+00   3.1317840518E+00   1.0500000000E-01     0.000  -1.
13    1    9    0    0    0  -6.1868079975E-01  -2.7153111660E+00  -4.4940347605E+01   4.5026675965E+01   1.0500000000E-01     0.000  -1.
-13    1    9    0    0    0  -2.8423736268E-01  -1.2353193975E+00  -2.1699970669E+01   2.1737215942E+01   1.0500000000E-01     0.000   1.
</event>
<event>
 13   1  9.2978750E-05  1.2500000E+02  7.5467720E-03  1.2380620E-01
   21   -1    0    0  502  501   0.0000000000E+00   0.0000000000E+00   2.6285552955E+01   2.6285552955E+01   0.0000000000E+00     0.000   1.
   21   -1    0    0  501  502   0.0000000000E+00   0.0000000000E+00  -1.4860824905E+02   1.4860824905E+02   0.0000000000E+00     0.000   1.
   25    2    1    2    0    0   0.0000000000E+00   0.0000000000E+00  -1.2232269610E+02   1.7489380201E+02   1.2500000000E+02  5.201E-09  -1.
3000002    2    3    0    0    0  -2.3831291131E+01  -5.6704139159E+01  -5.4457071640E+01   8.2757854530E+01   1.0000000000E+01  7.208E-10  -1.
3000002    2    3    0    0    0   2.3831291131E+01   5.6704139159E+01  -6.7865624460E+01   9.2135947480E+01   1.0000000000E+01  1.621E-11  -1.
3000001    1    4    0    0    0  -7.7299767818E+00  -1.0205551278E+01  -1.4510222311E+01   1.9376593340E+01   1.0000000000E+00     0.000  -1.
3000022   2   4   0   0   0   -1.6101314349E+01   -4.6498587881E+01   -3.9946849328E+01   6.3381261190E+01   2.5000000000E-01   4.552282E+00   0.
3000001    1    5    0    0    0   1.3832867735E+01   2.0800822678E+01  -2.8977223129E+01   3.8271424249E+01   1.0000000000E+00     0.000  -1.
3000022   2   5   0   0   0   9.9984233964E+00   3.5903316482E+01   -3.8888401331E+01   5.3864523231E+01   2.5000000000E-01   2.879458E-01   0.
13    1    7    0    0    0  -1.1087838040E+01  -3.1872473535E+01  -2.7381906112E+01   4.3457732671E+01   1.0500000000E-01     0.000   1.
-13    1    7    0    0    0  -5.0134763094E+00  -1.4626114347E+01  -1.2564943216E+01   1.9923528518E+01   1.0500000000E-01     0.000  -1.
13    1    9    0    0    0   3.6221910385E+00   1.2840444099E+01  -1.3974252744E+01   1.9320663480E+01   1.0500000000E-01     0.000  -1.
-13    1    9    0    0    0   6.3762323579E+00   2.3062872383E+01  -2.4914148588E+01   3.4543859751E+01   1.0500000000E-01     0.000   1.
</event>
<event>
 13   1  9.2978750E-05  1.2500000E+02  7.5467720E-03  1.2380620E-01
   21   -1    0    0  502  501   0.0000000000E+00   0.0000000000E+00   6.3720437411E+01   6.3720437411E+01   0.0000000000E+00     0.000   1.
   21   -1    0    0  501  502   0.0000000000E+00   0.0000000000E+00  -6.1302937624E+01   6.1302937624E+01   0.0000000000E+00     0.000   1.
   25    2    1    2    0    0   0.0000000000E+00   0.0000000000E+00   2.4174997863E+00   1.2502337504E+02   1.2500000000E+02  5.532E-08  -1.
3000002    2    3    0    0    0  -5.6087228332E+01   2.2552842851E+01  -1.1115976958E+01   6.2273371889E+01   1.0000000000E+01  1.894E-10   1.
3000002    2    3    0    0    0   5.6087228332E+01  -2.2552842851E+01   1.3533476744E+01   6.2750003151E+01   1.0000000000E+01  3.097E-11   1.
3000001    1    4    0    0    0  -4.9988124293E+01   1.6940335602E+01  -7.8932880411E+00   5.3376882044E+01   1.0000000000E+00     0.000   1.
3000022   2   4   0   0   0   -6.0991040396E+00   5.6125072495E+00   -3.2226889165E+00   8.8964898451E+00   2.5000000000E-01   8.905520E-01   0.
3000001    1    5    0    0    0   4.5772336270E+01  -1.4030839917E+01   1.0940012272E+01   4.9118785662E+01   1.0000000000E+00     0.000   1.
3000022   2   5   0   0   0   1.0314892062E+01   -8.5220029340E+00   2.5934644724E+00   1.3631217489E+01   2.5000000000E-01   5.529944E+00   0.
13    1    7    0    0    0  -2.2307266019E+00   2.1175545682E+00  -1.1576232881E+00   3.2880534057E+00   1.0500000000E-01     0.000  -1.
-13    1    7    0    0    0  -3.8683774377E+00   3.4949526813E+00  -2.0650656284E+00   5.6084364394E+00   1.0500000000E-01     0.000   1.
13    1    9    0    0    0   5.5837298938E+00  -4.6717961994E+00   1.3608221047E+00   7.4071979220E+00   1.0500000000E-01     0.000   1.
-13    1    9    0    0    0   4.7311621682E+00  -3.8502067347E+00   1.2326423677E+00   6.2240195668E+00   1.0500000000E-01     0.000  -1.
</event>
<event>
 13   1  9.2978750E-05  1.2500000E+02  7.5467720E-03  1.2380620E-01
   21   -1    0    0  502  501   0.0000000000E+00   0.0000000000E+00   1.1004298262E+01   1.1004298262E+01   0.0000000000E+00     0.000   1.
   21   -1    0    0  501  502   0.0000000000E+00   0.0000000000E+00  -3.5497492953E+02   3.5497492953E+02   0.0000000000E+00     0.000   1.
   25    2    1    2    0    0   0.0000000000E+00   0.0000000000E+00  -3.4397063127E+02   3.6597922780E+02   1.2500000000E+02  1.338E-08  -1.
3000002    2    3    0    0    0  -1.9399331995E+01  -3.7073011706E+01  -3.0472658910E+02   3.0774833287E+02   1.0000000000E+01  6.614E-10   1.
3000002    2    3    0    0    0   1.9399331995E+01   3.7073011706E+01  -3.9244042172E+01   5.8230894934E+01   1.0000000000E+01  1.525E-10   1.
3000001    1    4    0    0    0  -1.4019987031E+01  -1.9297069139E+01  -1.9572597340E+02   1.9717655433E+02   1.0000000000E+00     0.000  -1.
3000022   2   4   0   0   0   -5.3793449637E+00   -1.7775942567E+01   -1.0900061570E+02   1.1057177854E+02   2.5000000000E-01   3.919244E+00   0.
3000001    1    5    0    0    0   1.6741687299E+01   2.2076183167E+01  -2.6822332778E+01   3.8575633404E+01   1.0000000000E+00     0.000   1.
3000022   2   5   0   0   0   2.6576446962E+00   1.4996828539E+01   -1.2421709394E+01   1.9655261530E+01   2.5000000000E-01   5.195877E+00   0.
13    1    7    0    0    0  -2.3701954863E+00  -7.7997804123E+00  -4.7456135275E+01   4.8151326060E+01   1.0500000000E-01     0.000  -1.
-13    1    7    0    0    0  -3.0091494774E+00  -9.9761621548E+00  -6.1544480426E+01   6.2420452480E+01   1.0500000000E-01     0.000   1.
13    1    9    0    0    0   1.1195598241E+00   6.6325800765E+00  -5.4382613097E+00   8.6504476037E+00   1.0500000000E-01     0.000  -1.
-13    1    9    0    0    0   1.5380848721E+00   8.3642484620E+00  -6.9834480843E+00   1.1004813926E+01   1.0500000000E-01     0.000   1.
</event>
<event>
 13   1  9.2978750E-05  1.2500000E+02  7.5467720E-03  1.2380620E-01
   21   -1    0    0  502  501   0.0000000000E+00   0.0000000000E+00   1.3547367179E+01   1.3547367179E+01   0.0000000000E+00     0.000   1.
   21   -1    0    0  501  502   0.0000000000E+00   0.0000000000E+00  -2.8834015853E+02   2.8834015853E+02   0.0000000000E+00     0.000   1.
   25    2    1    2    0    0   0.0000000000E+00   0.0000000000E+00  -2.7479279135E+02   3.0188752571E+02   1.2500000000E+02  1.756E-07  -1.
3000002    2    3    0    0    0   1.4788368914E+01  -4.7603195158E+01  -2.2519085087E+02   2.3085857004E+02   1.0000000000E+01  2.788E-11  -1.
3000002    2    3    0    0    0  -1.4788368914E+01   4.7603195158E+01  -4.9601940479E+01   7.1028955671E+01   1.0000000000E+01  1.178E-09  -1.
3000001    1    4    0    0    0   1.0254699397E+01  -1.8186298523E+01  -8.3661486891E+01   8.6233083573E+01   1.0000000000E+00     0.000   1.
3000022   2   4   0   0   0   4.5336695175E+00   -2.9416896635E+01   -1.4152936398E+02   1.4462548647E+02   2.5000000000E-01   1.400050E+00   0.
3000001    1    5    0    0    0  -2.7197053452E+00   2.5425947679E+01  -2.4838218874E+01   3.5662483500E+01   1.0000000000E+00     0.000  -1.
3000022   2   5   0   0   0   -1.2068663569E+01   2.2177247479E+01   -2.4763721605E+01   3.5366472171E+01   2.5000000000E-01   1.028252E+01   0.
13    1    7    0    0    0   1.2304972269E+00  -8.2355083354E+00  -3.9645673208E+01   4.0510839908E+01   1.0500000000E-01     0.000   1.
-13    1    7    0    0    0   3.3031722906E+00  -2.1181388300E+01  -1.0188369077E+02   1.0411464656E+02   1.0500000000E-01     0.000  -1.
13    1    9    0    0    0  -7.7232435181E+00   1.4069325258E+01  -1.5738817582E+01   2.2479230581E+01   1.0500000000E-01     0.000   1.
-13    1    9    0    0    0  -4.3454200509E+00   8.1079222213E+00  -9.0249040233E+00   1.2887241590E+01   1.0500000000E-01     0.000  -1.
</event>
<event>
 13   1  9.2978750E-05  1.2500000E+02  7.5467720E-03  1.2380620E-01
   21   -1    0    0  502  501   0.0000000000E+00   0.0000000000E+00   3.9793995312E+01   3.9793995312E+01   0.0000000000E+00     0.000  -1.
   21   -1    0    0  501  502   0.0000000000E+00   0.0000000000E+00  -9.8161794748E+01   9.8161794748E+01   0.0000000000E+00     0.000  -1.
   25    2    1    2    0    0   0.0000000000E+00   0.0000000000E+00  -5.8367799437E+01   1.3795579006E+02   1.2500000000E+02  8.748E-11  -1.
3000002    2    3    0    0    0   3.0906956761E+01  -4.9396495834E+01  -5.1558167686E+01   7.8444237723E+01   1.0000000000E+01  7.983E-10  -1.
3000002    2    3    0    0    0  -3.0906956761E+01   4.9396495834E+01  -6.8096317514E+00   5.9511552337E+01   1.0000000000E+01  1.131E-09  -1.
3000001    1    4    0    0    0   2.5828368504E+01  -4.6122741183E+01  -4.8102261866E+01   7.1478944245E+01   1.0000000000E+00     0.000  -1.
3000022   2   4   0   0   0   5.0785882573E+00   -3.2737546512E+00   -3.4559058195E+00   6.9652934782E+00   2.5000000000E-01   2.253175E+00   0.
3000001    1    5    0    0    0  -7.5471031336E+00   2.1016065421E+01  -3.0950673197E+00   2.2565753106E+01   1.0000000000E+00     0.000   1.
3000022   2   5   0   0   0   -2.3359853627E+01   2.8380430413E+01   -3.7145644317E+00   3.6945799231E+01   2.5000000000E-01   1.301046E+00   0.
13    1    7    0    0    0   3.2200750700E+00  -2.1268440412E+00  -2.1608260911E+00   4.4240867338E+00   1.0500000000E-01     0.000   1.
-13    1    7    0    0    0   1.8585131873E+00  -1.1469106100E+00  -1.2950797284E+00   2.5412067444E+00   1.0500000000E-01     0.000  -1.
13    1    9    0    0    0  -1.2797815100E+01   1.5622075968E+01  -2.0884938079E+00   2.0302860889E+01   1.0500000000E-01     0.000  -1.
-13    1    9    0    0    0  -1.0562038527E+01   1.2758354445E+01  -1.6260706238E+00   1.6642938342E+01   1.0500000000E-01     0.000   1.
</event>
<event>
 13   1  9.2978750E-05  1.2500000E+02  7.5467720E-03  1.2380620E-01
   21   -1    0    0  502  501   0.0000000000E+00   0.0000000000E+00   3.6650912734E+00   3.6650912734E+00   0.0000000000E+00     0.000  -1.
   21   -1    0    0  501  502   0.0000000000E+00   0.0000000000E+00  -1.0657988324E+03   1.0657988324E+03   0.0000000000E+00     0.000  -1.
   25    2    1    2    0    0   0.0000000000E+00   0.0000000000E+00  -1.0621337412E+03   1.0694639237E+03   1.2500000000E+02  2.853E-08  -1.
3000002    2    3    0    0    0  -1.9256045365E+01  -5.8596834080E+01  -5.1938048345E+02   5.2312567403E+02   1.0000000000E+01  5.603E-10  -1.
3000002    2    3    0    0    0   1.9256045365E+01   5.8596834080E+01  -5.4275325775E+02   5.4633824967E+02   1.0000000000E+01  2.904E-10  -1.
3000001    1    4    0    0    0  -1.7729948149E+01  -4.5149955515E+01  -4.2953304959E+02   4.3226439853E+02   1.0000000000E+00     0.000  -1.
3000022   2   4   0   0   0   -1.5260972154E+00   -1.3446878565E+01   -8.9847433858E+01   9.0861275506E+01   2.5000000000E-01   4.908675E+00   0.
3000001    1    5    0    0    0   3.8132777818E+00   7.3150335427E+00  -1.0324536979E+02   1.0357923144E+02   1.0000000000E+00     0.000   1.
3000022   2   5   0   0   0   1.5442767583E+01   5.1281800537E+01   -4.3950788796E+02   4.4275901822E+02   2.5000000000E-01   4.306176E+00   0.
13    1    7    0    0    0  -8.4391560665E-01  -7.9967698146E+00  -5.3427127500E+01   5.4028969071E+01   1.0500000000E-01     0.000  -1.
-13    1    7    0    0    0  -6.8218160874E-01  -5.4501087500E+00  -3.6420306358E+01   3.6832306435E+01   1.0500000000E-01     0.000   1.
13    1    9    0    0    0   8.9537683773E+00   2.9942929321E+01  -2.5666120271E+02   2.5855702076E+02   1.0500000000E-01     0.000  -1.
-13    1    9    0    0    0   6.4889992055E+00   2.1338871216E+01  -1.8284668526E+02   1.8420199746E+02   1.0500000000E-01     0.000   1.
</event>
<event>
 13   1  9.2978750E-05  1.2500000E+02  7.5467720E-03  1.2380620E-01
   21   -1    0    0  502  501   0.0000000000E+00   0.0000000000E+00   6.7208081328E+01   6.7208081328E+01   0.0000000000E+00     0.000  -1.
   21   -1    0    0  501  502   0.0000000000E+00   0.0000000000E+00  -5.8121730643E+01   5.8121730643E+01   0.0000000000E+00     0.000  -1.
   25    2    1    2    0    0   0.0000000000E+00   0.0000000000E+00   9.0863506848E+00   1.2532981197E+02   1.2500000000E+02  2.865E-08  -1.
3000002    2    3    0    0    0  -3.5764317714E+01   4.5053342755E+01   2.6903584805E+01   6.4286024844E+01   1.0000000000E+01  4.684E-10   1.
3000002    2    3    0    0    0   3.5764317714E+01  -4.5053342755E+01  -1.7817234120E+01   6.1043787126E+01   1.0000000000E+01  2.709E-10   1.
3000001    1    4    0    0    0  -1.4986564155E+01   1.7638575480E+01   5.6362497054E+00   2.3842897493E+01   1.0000000000E+00     0.000   1.
3000022   2   4   0   0   0   -2.0777753558E+01   2.7414767275E+01   2.1267335100E+01   4.0443127351E+01   2.5000000000E-01   4.995110E-01   0.
3000001    1    5    0    0    0   1.6067156836E+01  -2.0346409459E+01  -1.3199952157E+01   2.9109597105E+01   1.0000000000E+00     0.000  -1.
3000022   2   5   0   0   0   1.9697160877E+01   -2.4706933296E+01   -4.6172819631E+00   3.1934190021E+01   2.5000000000E-01   5.380706E-01   0.
13    1    7    0    0    0  -5.9825525312E+00   7.8337937282E+00   6.0693842528E+00   1.1576169884E+01   1.0500000000E-01     0.000  -1.
-13    1    7    0    0    0  -1.4795201027E+01   1.9580973547E+01   1.5197950847E+01   2.8866957468E+01   1.0500000000E-01     0.000   1.
13    1    9    0    0    0   1.5139717862E+01  -1.9002723728E+01  -3.5548747592E+00   2.4555299338E+01   1.0500000000E-01     0.000   1.
-13    1    9    0    0    0   4.5574430154E+00  -5.7042095686E+00  -1.0624072039E+00   7.3788906828E+00   1.0500000000E-01     0.000  -1.
</event>
<event>
 13   1  9.2978750E-05  1.2500000E+02  7.5467720E-03  1.2380620E-01
   21   -1    0    0  502  501   0.0000000000E+00   0.0000000000E+00   4.7018525653E+01   4.7018525653E+01   0.0000000000E+00     0.000   1.
   21   -1    0    0  501  502   0.0000000000E+00   0.0000000000E+00  -8.3078955492E+01   8.3078955492E+01   0.0000000000E+00     0.000   1.
   25    2    1    2    0    0   0.0000000000E+00   0.0000000000E+00  -3.6060429839E+01   1.3009748114E+02   1.2500000000E+02  8.256E-08  -1.
3000002    2    3    0    0    0   1.8106006804E+01  -1.0941766452E+01   4.2287447087E+01   4.8329886371E+01   1.0000000000E+01  4.629E-10  -1.
3000002    2    3    0    0    0  -1.8106006804E+01   1.0941766452E+01  -7.8347876926E+01   8.1767594769E+01   1.0000000000E+01  5.067E-10  -1.
3000001    1    4    0    0    0   1.8954883933E+01  -1.0564754929E+01   3.6596799840E+01   4.2558517715E+01   1.0000000000E+00     0.000  -1.
3000022   2   4   0   0   0   -8.4887712814E-01   -3.7701152300E-01   5.6906472475E+00   5.7713686560E+00   2.5000000000E-01   4.684492E+00   0.
3000001    1    5    0    0    0  -1.1678822808E+01   4.5425259454E+00  -5.9953308229E+01   6.1257069891E+01   1.0000000000E+00     0.000  -1.
3000022   2   5   0   0   0   -6.4271839968E+00   6.3992405062E+00   -1.8394568698E+01   2.0510524878E+01   2.5000000000E-01   9.450067E+00   0.
13    1    7    0    0    0  -6.6266831203E-01  -2.9323571374E-01   4.3023159318E+00   4.3641796311E+00   1.0500000000E-01     0.000   1.
-13    1    7    0    0    0  -1.8620881611E-01  -8.3775809260E-02   1.3883313158E+00   1.4071890249E+00   1.0500000000E-01     0.000  -1.
13    1    9    0    0    0  -1.6802830786E+00   1.7009989471E+00  -4.9128475343E+00   5.4647822040E+00   1.0500000000E-01     0.000  -1.
-13    1    9    0    0    0  -4.7469009182E+00   4.6982415592E+00  -1.3481721163E+01   1.5045742674E+01   1.0500000000E-01     0.000   1.
</event>
<event>
 13   1  9.2978750E-05  1.2500000E+02  7.5467720E-03  1.2380620E-01
   21   -1    0    0  502  501   0.0000000000E+00   0.0000000000E+00   9.3503299987E+00   9.3503299987E+00   0.0000000000E+00     0.000  -1.
   21   -1    0    0  501  502   0.0000000000E+00   0.0000000000E+00  -4.1776600404E+02   4.1776600404E+02   0.0000000000E+00     0.000  -1.
   25    2    1    2    0    0   0.0000000000E+00   0.0000000000E+00  -4.0841567404E+02   4.2711633404E+02   1.2500000000E+02  4.856E-08  -1.
3000002    2    3    0    0    0   5.3360080668E+01  -2.6118759120E+01  -2.6105248287E+02   2.6791395372E+02   1.0000000000E+01  3.373E-10  -1.
3000002    2    3    0    0    0  -5.3360080668E+01   2.6118759120E+01  -1.4736319117E+02   1.5920238032E+02   1.0000000000E+01  2.633E-10  -1.
3000001    1    4    0    0    0   4.9986167797E+01  -2.4678553076E+01  -2.3080880370E+02   2.3744757699E+02   1.0000000000E+00     0.000  -1.
3000022   2   4   0   0   0   3.3739128712E+00   -1.4402060437E+00   -3.0243679162E+01   3.0466376725E+01   2.5000000000E-01   2.548418E-01   0.
3000001    1    5    0    0    0  -4.0867615124E+01   1.7696532317E+01  -9.9334549047E+01   1.0886543003E+02   1.0000000000E+00     0.000  -1.
3000022   2   5   0   0   0   -1.2492465544E+01   8.4222268026E+00   -4.8028642127E+01   5.0336950288E+01   2.5000000000E-01   2.913636E+00   0.
13    1    7    0    0    0   2.5525491220E+00  -1.0645926804E+00  -2.2829541046E+01   2.2996691805E+01   1.0500000000E-01     0.000  -1.
-13    1    7    0    0    0   8.2136374923E-01  -3.7561336322E-01  -7.4141381159E+00   7.4696849203E+00   1.0500000000E-01     0.000   1.
13    1    9    0    0    0  -3.1196546272E+00   2.0747687406E+00  -1.1913662819E+01   1.2489327327E+01   1.0500000000E-01     0.000  -1.
-13    1    9    0    0    0  -9.3728109166E+00   6.3474580620E+00  -3.6114979309E+01   3.7847622961E+01   1.0500000000E-01     0.000   1.
</event>
<event>
 13   1  9.2978750E-05  1.2500000E+02  7.5467720E-03  1.2380620E-01
   21   -1    0    0  502  501   0.0000000000E+00   0.0000000000E+00   3.2727188110E+01   3.2727188110E+01   0.0000000000E+00     0.000   1.
   21   -1    0    0  501  502   0.0000000000E+00   0.0000000000E+00  -1.1935794749E+02   1.1935794749E+02   0.0000000000E+00     0.000   1.
   25    2    1    2    0    0   0.0000000000E+00   0.0000000000E+00  -8.6630759381E+01   1.5208513560E+02   1.2500000000E+02  3.591E-08  -1.
3000002    2    3    0    0    0  -6.1149387104E+01  -4.1160338974E+00  -3.4706922799E+01   7.1139017202E+01   1.0000000000E+01  4.405E-10  -1.
3000002    2    3    0    0    0   6.1149387104E+01   4.1160338974E+00  -5.1923836582E+01   8.0946118398E+01   1.0000000000E+01  3.278E-11  -1.
3000001    1    4    0    0    0  -3.5316561667E+01  -7.2658153710E+00  -2.0492889995E+01   4.1485059254E+01   1.0000000000E+00     0.000   1.
3000022   2   4   0   0   0   -2.5832825437E+01   3.1497814736E+00   -1.4214032804E+01   2.9653957948E+01   2.5000000000E-01   1.885660E+00   0.
3000001    1    5    0    0    0   1.4013423598E+01   1.0356772808E+00  -6.8891844172E+00   1.5681502807E+01   1.0000000000E+00     0.000   1.
3000022   2   5   0   0   0   4.7135963507E+01   3.0803566166E+00   -4.5034652165E+01   6.5264615591E+01   2.5000000000E-01   1.566321E-01   0.
13    1    7    0    0    0  -1.5755007340E+01   1.9313416810E+00  -8.7391161957E+00   1.8119975548E+01   1.0500000000E-01     0.000  -1.
-13    1    7    0    0    0  -1.0077818097E+01   1.2184397925E+00  -5.4749166079E+00   1.1533982399E+01   1.0500000000E-01     0.000   1.
13    1    9    0    0    0   2.4729557487E+01   1.6801259778E+00  -2.3661286471E+01   3.4267205011E+01   1.0500000000E-01     0.000   1.
-13    1    9    0    0    0   2.2406406019E+01   1.4002306389E+00  -2.1373365694E+01   3.0997410580E+01   1.0500000000E-01     0.000  -1.
</event>
<event>
 13   1  9.2978750E-05  1.2500000E+02  7.5467720E-03  1.2380620E-01
   21   -1    0    0  502  501   0.0000000000E+00   0.0000000000E+00   6.5723932920E+02   6.5723932920E+02   0.0000000000E+00     0.000  -1.
   21   -1    0    0  501  502   0.0000000000E+00   0.0000000000E+00  -5.9434209526E+00   5.9434209526E+00   0.0000000000E+00     0.000  -1.
   25    2    1    2    0    0   0.0000000000E+00   0.0000000000E+00   6.5129590824E+02   6.6318275015E+02   1.2500000000E+02  1.029E-08  -1.
3000002    2    3    0    0    0   7.6155896679E+00  -6.8318284022E+00   2.8604493296E+00   1.4589491275E+01   1.0000000000E+01  1.398E-09  -1.
3000002    2    3    0    0    0  -7.6155896679E+00   6.8318284022E+00   6.4843545891E+02   6.4859325887E+02   1.0000000000E+01  5.359E-12  -1.
3000001    1    4    0    0    0   1.4057630885E+00   2.3964420062E+00  -4.3762178270E-01   2.9850656567E+00   1.0000000000E+00     0.000  -1.
3000022   2   4   0   0   0   6.2098265793E+00   -9.2282704084E+00   3.2980711123E+00   1.1604425619E+01   2.5000000000E-01   1.016045E+01   0.
3000001    1    5    0    0    0  -6.8431572722E+00  -1.0705803015E-01   2.4621507738E+02   2.4631220958E+02   1.0000000000E+00     0.000  -1.
3000022   2   5   0   0   0   -7.7243239562E-01   6.9388864323E+00   4.0222038154E+02   4.0228104929E+02   2.5000000000E-01   1.012128E+01   0.
13    1    7    0    0    0   3.2728650105E+00  -4.7486903482E+00   1.7321381794E+00   6.0227097782E+00   1.0500000000E-01     0.000   1.
-13    1    7    0    0    0   2.9369615689E+00  -4.4795800603E+00   1.5659329329E+00   5.5817158405E+00   1.0500000000E-01     0.000  -1.
13    1    9    0    0    0  -1.8824178497E-01   1.7543145440E+00   1.0333317835E+02   1.0334829378E+02   1.0500000000E-01     0.000  -1.
-13    1    9    0    0    0  -5.8419061066E-01   5.1845718883E+00   2.9888720318E+02   2.9893275551E+02   1.0500000000E-01     0.000   1.
</event>
<event>
 13   1  9.2978750E-05  1.2500000E+02  7.5467720E-03  1.2380620E-01
   21   -1    0    0  502  501   0.0000000000E+00   0.0000000000E+00   4.6428002632E+02   4.6428002632E+02   0.0000000000E+00     0.000  -1.
   21   -1    0    0  501  502   0.0000000000E+00   0.0000000000E+00  -8.4135646131E+00   8.4135646131E+00   0.0000000000E+00     0.000  -1.
   25    2    1    2    0    0   0.0000000000E+00   0.0000000000E+00   4.5586646170E+02   4.7269359093E+02   1.2500000000E+02  6.641E-09  -1.
3000002    2    3    0    0    0   1.0529532728E+01   3.2707873948E+01   3.4165333743E+01   4.9476722885E+01   1.0000000000E+01  6.941E-10   1.
3000002    2    3    0    0    0  -1.0529532728E+01  -3.2707873948E+01   4.2170112796E+02   4.2321686805E+02   1.0000000000E+01  8.478E-11   1.
3000001    1    4    0    0    0   1.7720760420E+00   1.5030713591E+01   9.5225226016E+00   1.7909244575E+01   1.0000000000E+00     0.000  -1.
3000022   2   4   0   0   0   8.7574566861E+00   1.7677160357E+01   2.4642811141E+01   3.1567478310E+01   2.5000000000E-01   2.785376E+00   0.
3000001    1    5    0    0    0  -2.4269921412E+00  -2.0229988198E+01   2.0784025599E+02   2.0883896840E+02   1.0000000000E+00     0.000  -1.
3000022   2   5   0   0   0   -8.1025405869E+00   -1.2477885750E+01   2.1386087197E+02   2.1437789965E+02   2.5000000000E-01   1.547629E+00   0.
13    1    7    0    0    0   4.1635255569E+00   8.3615456490E+00   1.1564548901E+01   1.4866075709E+01   1.0500000000E-01     0.000  -1.
-13    1    7    0    0    0   4.5939311292E+00   9.3156147080E+00   1.3078262240E+01   1.6701402601E+01   1.0500000000E-01     0.000   1.
13    1    9    0    0    0  -2.9191742696E+00  -4.5276698521E+00   7.6642672322E+01   7.6831839874E+01   1.0500000000E-01     0.000  -1.
-13    1    9    0    0    0  -5.1833663173E+00  -7.9502158975E+00   1.3721819965E+02   1.3754605977E+02   1.0500000000E-01     0.000   1.
</event>
<event>
 13   1  9.2978750E-05  1.2500000E+02  7.5467720E-03  1.2380620E-01
   21   -1    0    0  502  501   0.0000000000E+00   0.0000000000E+00   3.1425659882E+02   3.1425659882E+02   0.0000000000E+00     0.000   1.
   21   -1    0    0  501  502   0.0000000000E+00   0.0000000000E+00  -1.2430128801E+01   1.2430128801E+01   0.0000000000E+00     0.000   1.
   25    2    1    2    0    0   0.0000000000E+00   0.0000000000E+00   3.0182647002E+02   3.2668672762E+02   1.2500000000E+02  5.424E-09  -1.
3000002    2    3    0    0    0  -1.4006364754E+01  -1.4075254673E+01  -1.7461036046E+00   2.2301119378E+01   1.0000000000E+01  6.390E-10   1.
3000002    2    3    0    0    0   1.4006364754E+01   1.4075254673E+01   3.0357257362E+02   3.0438560824E+02   1.0000000000E+01  1.802E-09   1.
3000001    1    4    0    0    0  -5.2533799007E+00  -2.4991367259E+00  -4.6305067357E+00   7.5023514571E+00   1.0000000000E+00     0.000  -1.
3000022   2   4   0   0   0   -8.7529848532E+00   -1.1576117947E+01   2.8844031312E+00   1.4798767921E+01   2.5000000000E-01   4.624766E-02   0.
3000001    1    5    0    0    0   1.0103395348E+01   3.8532913486E+00   1.8095752394E+02   1.8128307126E+02   1.0000000000E+00     0.000   1.
3000022   2   5   0   0   0   3.9029694059E+00   1.0221963324E+01   1.2261504968E+02   1.2310253699E+02   2.5000000000E-01   6.522681E+00   0.
13    1    7    0    0    0  -4.1604146930E+00  -5.6143233157E+00   1.3924194902E+00   7.1259759856E+00   1.0500000000E-01     0.000  -1.
-13    1    7    0    0    0  -4.5925701602E+00  -5.9617946311E+00   1.4919836409E+00   7.6727919354E+00   1.0500000000E-01     0.000   1.
13    1    9    0    0    0   1.8963985020E+00   5.0466968226E+00   5.9723023968E+01   5.9965957785E+01   1.0500000000E-01     0.000   1.
-13    1    9    0    0    0   2.0065709039E+00   5.1752665014E+00   6.2892025711E+01   6.3136579201E+01   1.0500000000E-01     0.000  -1.
</event>
<event>
 13   1  9.2978750E-05  1.2500000E+02  7.5467720E-03  1.2380620E-01
   21   -1    0    0  502  501   0.0000000000E+00   0.0000000000E+00   1.6346949053E+02   1.6346949053E+02   0.0000000000E+00     0.000   1.
   21   -1    0    0  501  502   0.0000000000E+00   0.0000000000E+00  -2.3895896337E+01   2.3895896337E+01   0.0000000000E+00     0.000   1.
   25    2    1    2    0    0   0.0000000000E+00   0.0000000000E+00   1.3957359420E+02   1.8736538687E+02   1.2500000000E+02  1.419E-08  -1.
3000002    2    3    0    0    0   2.4510267502E+01   4.1766038286E+01   1.2491555702E+01   5.1001903210E+01   1.0000000000E+01  3.808E-10  -1.
3000002    2    3    0    0    0  -2.4510267502E+01  -4.1766038286E+01   1.2708203850E+02   1.3636348366E+02   1.0000000000E+01  2.338E-10  -1.
3000001    1    4    0    0    0   9.7711887167E+00   1.8446686826E+01   1.0376526552E+01   2.3332995673E+01   1.0000000000E+00     0.000   1.
3000022   2   4   0   0   0   1.4739078786E+01   2.3319351460E+01   2.1150291503E+00   2.7668907537E+01   2.5000000000E-01   1.687509E+00   0.
3000001    1    5    0    0    0  -1.0579823401E+01  -2.6636321509E+01   8.0006468004E+01   8.4990947808E+01   1.0000000000E+00     0.000  -1.
3000022   2   5   0   0   0   -1.3930444101E+01   -1.5129716777E+01   4.7075570494E+01   5.1372535853E+01   2.5000000000E-01   6.546099E+00   0.
13    1    7    0    0    0   6.5110166496E+00   1.0409577528E+01   9.7413189251E-01   1.2317166885E+01   1.0500000000E-01     0.000  -1.
-13    1    7    0    0    0   8.2280621360E+00   1.2909773932E+01   1.1408972578E+00   1.5351740652E+01   1.0500000000E-01     0.000   1.
13    1    9    0    0    0  -1.0162049253E+01  -1.1076699082E+01   3.4464446849E+01   3.7600128048E+01   1.0500000000E-01     0.000   1.
-13    1    9    0    0    0  -3.7683948482E+00  -4.0530176949E+00   1.2611123645E+01   1.3772407805E+01   1.0500000000E-01     0.000  -1.
</event>
<event>
 13   1  9.2978750E-05  1.2500000E+02  7.5467720E-03  1.2380620E-01
   21   -1    0    0  502  501   0.0000000000E+00   0.0000000000E+00   1.4673171829E+02   1.4673171829E+02   0.0000000000E+00     0.000   1.
   21   -1    0    0  501  502   0.0000000000E+00   0.0000000000E+00  -2.6621715097E+01   2.6621715097E+01   0.0000000000E+00     0.000   1.
   25    2    1    2    0    0   0.0000000000E+00   0.0000000000E+00   1.2011000319E+02   1.7335343339E+02   1.2500000000E+02  5.900E-10  -1.
3000002    2    3    0    0    0   1.8268598442E+01  -8.3301652745E+00  -2.0847295515E+01   3.0622590890E+01   1.0000000000E+01  1.494E-10  -1.
3000002    2    3    0    0    0  -1.8268598442E+01   8.3301652745E+00   1.4095729870E+02   1.4273084250E+02   1.0000000000E+01  1.896E-10  -1.
3000001    1    4    0    0    0   1.9137556439E+01  -8.7738593460E+00  -2.0803569259E+01   2.9614441885E+01   1.0000000000E+00     0.000  -1.
3000022   2   4   0   0   0   -8.6895799729E-01   4.4369407146E-01   -4.3726256365E-02   1.0081490047E+00   2.5000000000E-01   2.910398E+00   0.
3000001    1    5    0    0    0  -5.1831023607E+00  -3.3991262175E-01   1.7574691891E+01   1.8353470672E+01   1.0000000000E+00     0.000   1.
3000022   2   5   0   0   0   -1.3085496081E+01   8.6700778963E+00   1.2338260681E+02   1.2437737183E+02   2.5000000000E-01   2.117056E+00   0.
13    1    7    0    0    0  -3.6600942242E-01   2.4956756944E-01  -5.6460772047E-02   4.5875885582E-01   1.0500000000E-01     0.000   1.
-13    1    7    0    0    0  -5.0294857488E-01   1.9412650203E-01   1.2734515681E-02   5.4939014884E-01   1.0500000000E-01     0.000  -1.
13    1    9    0    0    0  -7.2098095412E+00   4.8563546459E+00   6.8376875651E+01   6.8927307236E+01   1.0500000000E-01     0.000  -1.
-13    1    9    0    0    0  -5.8756865402E+00   3.8137232504E+00   5.5005731163E+01   5.5450064591E+01   1.0500000000E-01     0.000   1.
</event>
<event>
 13   1  9.2978750E-05  1.2500000E+02  7.5467720E-03  1.2380620E-01
   21   -1    0    0  502  501   0.0000000000E+00   0.0000000000E+00   1.1563255755E+01   1.1563255755E+01   0.0000000000E+00     0.000   1.
   21   -1    0    0  501  502   0.0000000000E+00   0.0000000000E+00  -3.3781575731E+02   3.3781575731E+02   0.0000000000E+00     0.000   1.
   25    2    1    2    0    0   0.0000000000E+00   0.0000000000E+00  -3.2625250156E+02   3.4937901307E+02   1.2500000000E+02  9.857E-09  -1.
3000002    2    3    0    0    0  -2.1116744689E+01   3.2578473977E+01  -2.9111059232E+01   4.9545208068E+01   1.0000000000E+01  2.486E-10   1.
3000002    2    3    0    0    0   2.1116744689E+01  -3.2578473977E+01  -2.9714144233E+02   2.9983380500E+02   1.0000000000E+01  1.659E-09   1.
3000001    1    4    0    0    0  -1.7447536783E+01   2.1989984488E+01  -1.6115384633E+01   3.2383353431E+01   1.0000000000E+00     0.000   1.
3000022   2   4   0   0   0   -3.6692079065E+00   1.0588489489E+01   -1.2995674598E+01   1.7161854637E+01   2.5000000000E-01   6.620774E+00   0.
3000001    1    5    0    0    0   7.2050620756E+00  -1.2160987905E+01  -7.5396041848E+01   7.6716136977E+01   1.0000000000E+00     0.000  -1.
3000022   2   5   0   0   0   1.3911682614E+01   -2.0417486072E+01   -2.2174540048E+02   2.2311766802E+02   2.5000000000E-01   2.408371E+01   0.
13    1    7    0    0    0  -2.4314082272E+00   7.1553762252E+00  -8.8011859674E+00   1.1600993678E+01   1.0500000000E-01     0.000   1.
-13    1    7    0    0    0  -1.2377996793E+00   3.4331132640E+00  -4.1944886311E+00   5.5608609590E+00   1.0500000000E-01     0.000  -1.
13    1    9    0    0    0   5.3876112726E+00  -7.8272584637E+00  -8.4908848527E+01   8.5438960162E+01   1.0500000000E-01     0.000   1.
-13    1    9    0    0    0   8.5240713410E+00  -1.2590227608E+01  -1.3683655195E+02   1.3767870786E+02   1.0500000000E-01     0.000  -1.
</event>
<event>
 13   1  9.2978750E-05  1.2500000E+02  7.5467720E-03  1.2380620E-01
   21   -1    0    0  502  501   0.0000000000E+00   0.0000000000E+00   1.4574172262E+02   1.4574172262E+02   0.0000000000E+00     0.000  -1.
   21   -1    0    0  501  502   0.0000000000E+00   0.0000000000E+00  -2.6802551320E+01   2.6802551320E+01   0.0000000000E+00     0.000  -1.
   25    2    1    2    0    0   0.0000000000E+00   0.0000000000E+00   1.1893917130E+02   1.7254427394E+02   1.2500000000E+02  1.312E-08  -1.
3000002    2    3    0    0    0   1.1046738076E+01   5.8208474976E+01   8.3217817074E+01   1.0264239894E+02   1.0000000000E+01  3.092E-10  -1.
3000002    2    3    0    0    0  -1.1046738076E+01  -5.8208474976E+01   3.5721354226E+01   6.9901875002E+01   1.0000000000E+01  3.041E-10  -1.
3000001    1    4    0    0    0   9.9297444232E+00   4.6638686203E+01   5.9740767820E+01   7.6444268685E+01   1.0000000000E+00     0.000  -1.
3000022   2   4   0   0   0   1.1169936524E+00   1.1569788773E+01   2.3477049253E+01   2.6198130252E+01   2.5000000000E-01   9.919612E-01   0.
3000001    1    5    0    0    0  -7.6013822487E+00  -5.4404062407E+01   3.2917151684E+01   6.4047809435E+01   1.0000000000E+00     0.000  -1.
3000022   2   5   0   0   0   -3.4453558269E+00   -3.8044125689E+00   2.8042025418E+00   5.8540655671E+00   2.5000000000E-01   5.812479E+00   0.
13    1    7    0    0    0   6.9499541441E-01   6.6955481175E+00   1.3497502146E+01   1.5083334260E+01   1.0500000000E-01     0.000  -1.
-13    1    7    0    0    0   4.2199823799E-01   4.8742406552E+00   9.9795471076E+00   1.1114795992E+01   1.0500000000E-01     0.000   1.
13    1    9    0    0    0  -2.4401476577E+00  -2.6788040861E+00   1.9294316487E+00   4.1065853711E+00   1.0500000000E-01     0.000   1.
-13    1    9    0    0    0  -1.0052081692E+00  -1.1256084828E+00   8.7477089314E-01   1.7474801960E+00   1.0500000000E-01     0.000  -1.
</event>
<event>
 13   1  9.2978750E-05  1.2500000E+02  7.5467720E-03  1.2380620E-01
   21   -1    0    0  502  501   0.0000000000E+00   0.0000000000E+00   2.3576684585E+01   2.3576684585E+01   0.0000000000E+00     0.000   1.
   21   -1    0    0  501  502   0.0000000000E+00   0.0000000000E+00  -1.6568275263E+02   1.6568275263E+02   0.0000000000E+00     0.000   1.
   25    2    1    2    0    0   0.0000000000E+00   0.0000000000E+00  -1.4210606804E+02   1.8925943722E+02   1.2500000000E+02  5.648E-08  -1.
3000002    2    3    0    0    0   5.0340762026E+01   3.5119607667E+01  -8.0468445739E+01   1.0169931132E+02   1.0000000000E+01  5.129E-11  -1.
3000002    2    3    0    0    0  -5.0340762026E+01  -3.5119607667E+01  -6.1637622301E+01   8.7560125896E+01   1.0000000000E+01  9.870E-10  -1.
3000001    1    4    0    0    0   3.7576064437E+01   2.4900756341E+01  -5.1629036600E+01   6.8546084536E+01   1.0000000000E+00     0.000  -1.
3000022   2   4   0   0   0   1.2764697589E+01   1.0218851326E+01   -2.8839409139E+01   3.3153226788E+01   2.5000000000E-01   3.676690E+00   0.
3000001    1    5    0    0    0  -1.2730241280E+01  -4.0333727039E+00  -1.3651075127E+01   1.9122734912E+01   1.0000000000E+00     0.000  -1.
3000022   2   5   0   0   0   -3.7610520747E+01   -3.1086234963E+01   -4.7986547174E+01   6.8437390984E+01   2.5000000000E-01   3.365770E+00   0.
13    1    7    0    0    0   4.7123395198E+00   3.8244822533E+00  -1.0793538618E+01   1.2383226928E+01   1.0500000000E-01     0.000   1.
-13    1    7    0    0    0   8.0523580688E+00   6.3943690728E+00  -1.8045870521E+01   2.0769999860E+01   1.0500000000E-01     0.000  -1.
13    1    9    0    0    0  -1.7809828943E+01  -1.4665808783E+01  -2.2615050808E+01   3.2306771771E+01   1.0500000000E-01     0.000  -1.
-13    1    9    0    0    0  -1.9800691804E+01  -1.6420426180E+01  -2.5371496366E+01   3.6130619213E+01   1.0500000000E-01     0.000   1.
</event>
<event>
 13   1  9.2978750E-05  1.2500000E+02  7.5467720E-03  1.2380620E-01
   21   -1    0    0  502  501   0.0000000000E+00   0.0000000000E+00   1.3474842674E+01   1.3474842674E+01   0.0000000000E+00     0.000  -1.
   21   -1    0    0  501  502   0.0000000000E+00   0.0000000000E+00  -2.8989206735E+02   2.8989206735E+02   0.0000000000E+00     0.000  -1.
   25    2    1    2    0    0   0.0000000000E+00   0.0000000000E+00  -2.7641722468E+02   3.0336691002E+02   1.2500000000E+02  8.977E-09  -1.
3000002    2    3    0    0    0   3.6145938315E+01  -4.9995595411E+01  -1.3918417291E+02   1.5257235138E+02   1.0000000000E+01  8.016E-10   1.
3000002    2    3    0    0    0  -3.6145938315E+01   4.9995595411E+01  -1.3723305177E+02   1.5079455864E+02   1.0000000000E+01  5.374E-10   1.
3000001    1    4    0    0    0   1.2171596914E+01  -1.0173838139E+01  -3.9742116840E+01   4.2802927526E+01   1.0000000000E+00     0.000   1.
3000022   2   4   0   0   0   2.3974341401E+01   -3.9821757272E+01   -9.9442056073E+01   1.0976942386E+02   2.5000000000E-01   7.418979E+00   0.
3000001    1    5    0    0    0  -2.8805255845E+01   3.8198812681E+01  -1.1522267084E+02   1.2476440170E+02   1.0000000000E+00     0.000   1.
3000022   2   5   0   0   0   -7.3406824701E+00   1.1796782729E+01   -2.2010380923E+01   2.6030156939E+01   2.5000000000E-01   4.792362E+00   0.
13    1    7    0    0    0   1.5117379730E+01  -2.5193696699E+01  -6.2953391660E+01   6.9472282744E+01   1.0500000000E-01     0.000  -1.
-13    1    7    0    0    0   8.8569616713E+00  -1.4628060573E+01  -3.6488664413E+01   4.0297141112E+01   1.0500000000E-01     0.000   1.
13    1    9    0    0    0  -3.3505757773E+00   5.3358370924E+00  -9.8657435239E+00   1.1706469826E+01   1.0500000000E-01     0.000   1.
-13    1    9    0    0    0  -3.9901066927E+00   6.4609456370E+00  -1.2144637399E+01   1.4323687112E+01   1.0500000000E-01     0.000  -1.
</event>
<event>
 13   1  9.2978750E-05  1.2500000E+02  7.5467720E-03  1.2380620E-01
   21   -1    0    0  502  501   0.0000000000E+00   0.0000000000E+00   8.1105697205E+00   8.1105697205E+00   0.0000000000E+00     0.000   1.
   21   -1    0    0  501  502   0.0000000000E+00   0.0000000000E+00  -4.8162461265E+02   4.8162461265E+02   0.0000000000E+00     0.000   1.
   25    2    1    2    0    0   0.0000000000E+00   0.0000000000E+00  -4.7351404293E+02   4.8973518237E+02   1.2500000000E+02  6.907E-08  -1.
3000002    2    3    0    0    0   3.2343910711E+01  -5.2531689703E+01  -2.3386994780E+02   2.4207614394E+02   1.0000000000E+01  1.080E-09  -1.
3000002    2    3    0    0    0  -3.2343910711E+01   5.2531689703E+01  -2.3964409513E+02   2.4765903843E+02   1.0000000000E+01  1.022E-09  -1.
3000001    1    4    0    0    0   1.4154888367E+01  -1.7002879496E+01  -9.7578561719E+01   1.0006015432E+02   1.0000000000E+00     0.000   1.
3000022   2   4   0   0   0   1.8189022344E+01   -3.5528810207E+01   -1.3629138608E+02   1.4201598962E+02   2.5000000000E-01   1.487838E+00   0.
3000001    1    5    0    0    0  -1.8220183675E+01   3.2249102460E+01  -1.2476384376E+02   1.3014989978E+02   1.0000000000E+00     0.000   1.
3000022   2   5   0   0   0   -1.4123727036E+01   2.0282587243E+01   -1.1488025137E+02   1.1750913865E+02   2.5000000000E-01   2.005217E+00   0.
13    1    7    0    0    0   4.8603844444E+00  -9.4706457638E+00  -3.6467167678E+01   3.7989232838E+01   1.0500000000E-01     0.000   1.
-13    1    7    0    0    0   1.3328637900E+01  -2.6058164443E+01  -9.9824218401E+01   1.0402675678E+02   1.0500000000E-01     0.000  -1.
13    1    9    0    0    0  -9.1042405882E+00   1.2998579178E+01  -7.3944177545E+01   7.5628054815E+01   1.0500000000E-01     0.000  -1.
-13    1    9    0    0    0  -5.0194864480E+00   7.2840080647E+00  -4.0936073830E+01   4.1881083836E+01   1.0500000000E-01     0.000   1.
</event>
<event>
 13   1  9.2978750E-05  1.2500000E+02  7.5467720E-03  1.2380620E-01
   21   -1    0    0  502  501   0.0000000000E+00   0.0000000000E+00   1.7688505389E+02   1.7688505389E+02   0.0000000000E+00     0.000   1.
   21   -1    0    0  501  502   0.0000000000E+00   0.0000000000E+00  -2.2083550385E+01   2.2083550385E+01   0.0000000000E+00     0.000   1.
   25    2    1    2    0    0   0.0000000000E+00   0.0000000000E+00   1.5480150351E+02   1.9896860428E+02   1.2500000000E+02  5.505E-09  -1.
3000002    2    3    0    0    0   3.4518158041E+00  -5.5637570317E+00   1.7504879664E+02   1.7545640949E+02   1.0000000000E+01  1.876E-10  -1.
3000002    2    3    0    0    0  -3.4518158041E+00   5.5637570317E+00  -2.0247293133E+01   2.3512194791E+01   1.0000000000E+01  1.309E-09  -1.
3000001    1    4    0    0    0   2.3305138027E+00  -7.8408777037E+00   1.5831741316E+02   1.5853174436E+02   1.0000000000E+00     0.000  -1.
3000022   2   4   0   0   0   1.1213020014E+00   2.2771206720E+00   1.6731383480E+01   1.6924665134E+01   2.5000000000E-01   3.117713E+00   0.
3000001    1    5    0    0    0  -8.3502828382E-01   7.9828846194E+00  -1.6246070266E+01   1.8148237330E+01   1.0000000000E+00     0.000   1.
3000022   2   5   0   0   0   -2.6167875202E+00   -2.4191275877E+00   -4.0012228672E+00   5.3639574611E+00   2.5000000000E-01   4.612951E-01   0.
13    1    7    0    0    0   5.0121606963E-01   1.1319451230E+00   8.4559860058E+00   8.5467679061E+00   1.0500000000E-01     0.000  -1.
-13    1    7    0    0    0   6.2008593177E-01   1.1451755490E+00   8.2753974747E+00   8.3778972281E+00   1.0500000000E-01     0.000   1.
13    1    9    0    0    0  -1.5910820041E+00  -1.4224447034E+00  -2.4724001804E+00   3.2678247398E+00   1.0500000000E-01     0.000   1.
-13    1    9    0    0    0  -1.0257055161E+00  -9.9668288433E-01  -1.5288226868E+00   2.0961327213E+00   1.0500000000E-01     0.000  -1.
</event>
<event>
 13   1  9.2978750E-05  1.2500000E+02  7.5467720E-03  1.2380620E-01
   21   -1    0    0  502  501   0.0000000000E+00   0.0000000000E+00   1.4113509928E+02   1.4113509928E+02   0.0000000000E+00     0.000   1.
   21   -1    0    0  501  502   0.0000000000E+00   0.0000000000E+00  -2.7677381600E+01   2.7677381600E+01   0.0000000000E+00     0.000   1.
   25    2    1    2    0    0   0.0000000000E+00   0.0000000000E+00   1.1345771768E+02   1.6881248088E+02   1.2500000000E+02  5.049E-08  -1.
3000002    2    3    0    0    0  -2.9502901932E+01   4.1042957455E+01   1.0450114541E+02   1.1651366860E+02   1.0000000000E+01  7.185E-10   1.
3000002    2    3    0    0    0   2.9502901932E+01  -4.1042957455E+01   8.9565722725E+00   5.2298812280E+01   1.0000000000E+01  3.438E-12   1.
3000001    1    4    0    0    0  -3.4383526417E+00   2.8355509588E+00   1.6212704061E+01   1.6843823530E+01   1.0000000000E+00     0.000   1.
3000022   2   4   0   0   0   -2.6064549290E+01   3.8207406497E+01   8.8288441346E+01   9.9669845070E+01   2.5000000000E-01   3.585340E+00   0.
3000001    1    5    0    0    0   6.0839517361E+00  -1.1562028136E+01   6.3401335203E+00   1.4556519378E+01   1.0000000000E+00     0.000  -1.
3000022   2   5   0   0   0   2.3418950195E+01   -2.9480929319E+01   2.6164387522E+00   3.7742292902E+01   2.5000000000E-01   9.885098E+00   0.
13    1    7    0    0    0  -1.4207108591E+01   2.0926002918E+01   4.8204482446E+01   5.4437328053E+01   1.0500000000E-01     0.000   1.
-13    1    7    0    0    0  -1.1857440699E+01   1.7281403579E+01   4.0083958901E+01   4.5232517018E+01   1.0500000000E-01     0.000  -1.
13    1    9    0    0    0   1.5094874609E+01  -1.8914904795E+01   1.7012261799E+00   2.4259720904E+01   1.0500000000E-01     0.000   1.
-13    1    9    0    0    0   8.3240755870E+00  -1.0566024525E+01   9.1521257227E-01   1.3482571998E+01   1.0500000000E-01     0.000  -1.
</event>
<event>
 13   1  9.2978750E-05  1.2500000E+02  7.5467720E-03  1.2380620E-01
   21   -1    0    0  502  501   0.0000000000E+00   0.0000000000E+00   6.0362310425E+02   6.0362310425E+02   0.0000000000E+00     0.000   1.
   21   -1    0    0  501  502   0.0000000000E+00   0.0000000000E+00  -6.4713394377E+00   6.4713394377E+00   0.0000000000E+00     0.000   1.
   25    2    1    2    0    0   0.0000000000E+00   0.0000000000E+00   5.9715176481E+02   6.1009444368E+02   1.2500000000E+02  7.100E-10  -1.
3000002    2    3    0    0    0  -5.5726775606E+01   2.5209861045E+01   3.3799818490E+02   3.4363321086E+02   1.0000000000E+01  1.976E-09  -1.
3000002    2    3    0    0    0   5.5726775606E+01  -2.5209861045E+01   2.5915357991E+02   2.6646123282E+02   1.0000000000E+01  5.081E-10  -1.
3000001    1    4    0    0    0  -4.5789481015E+00   5.1500707630E+00   3.3115392991E+01   3.3839610629E+01   1.0000000000E+00     0.000   1.
3000022   2   4   0   0   0   -5.1147827505E+01   2.0059790282E+01   3.0488279191E+02   3.0979360023E+02   2.5000000000E-01   6.195860E-01   0.
3000001    1    5    0    0    0   1.0743804655E+01  -8.5853507213E+00   6.7961143101E+01   6.9345905121E+01   1.0000000000E+00     0.000   1.
3000022   2   5   0   0   0   4.4982970951E+01   -1.6624510323E+01   1.9119243681E+02   1.9711532770E+02   2.5000000000E-01   9.516598E-01   0.
13    1    7    0    0    0  -3.1622751862E+01   1.2400826683E+01   1.8883798352E+02   1.9186863731E+02   1.0500000000E-01     0.000   1.
-13    1    7    0    0    0  -1.9525075643E+01   7.6589635983E+00   1.1604480839E+02   1.1792496293E+02   1.0500000000E-01     0.000  -1.
13    1    9    0    0    0   2.7258370480E+01  -1.0073491531E+01   1.1611245606E+02   1.1969380715E+02   1.0500000000E-01     0.000  -1.
-13    1    9    0    0    0   1.7724600471E+01  -6.5510187922E+00   7.5079980753E+01   7.7421520548E+01   1.0500000000E-01     0.000   1.
</event>
<event>
 13   1  9.2978750E-05  1.2500000E+02  7.5467720E-03  1.2380620E-01
   21   -1    0    0  502  501   0.0000000000E+00   0.0000000000E+00   6.7586095763E+00   6.7586095763E+00   0.0000000000E+00     0.000  -1.
   21   -1    0    0  501  502   0.0000000000E+00   0.0000000000E+00  -5.7796651158E+02   5.7796651158E+02   0.0000000000E+00     0.000  -1.
   25    2    1    2    0    0   0.0000000000E+00   0.0000000000E+00  -5.7120790201E+02   5.8472512116E+02   1.2500000000E+02  4.221E-08  -1.
3000002    2    3    0    0    0   3.8099350662E+01   2.6926009399E+01  -9.6764451667E+01   1.0788850546E+02   1.0000000000E+01  6.708E-10  -1.
3000002    2    3    0    0    0  -3.8099350662E+01  -2.6926009399E+01  -4.7444345034E+02   4.7683661570E+02   1.0000000000E+01  3.195E-10  -1.
3000001    1    4    0    0    0   3.3864477833E+01   2.6125729556E+01  -8.1782731753E+01   9.2297192898E+01   1.0000000000E+00     0.000  -1.
3000022   2   4   0   0   0   4.2348728287E+00   8.0027984239E-01   -1.4981719913E+01   1.5591312557E+01   2.5000000000E-01   5.206200E-01   0.
3000001    1    5    0    0    0  -2.4778220131E+01  -1.1602666292E+01  -2.6410821612E+02   2.6552350533E+02   1.0000000000E+00     0.000  -1.
3000022   2   5   0   0   0   -1.3321130531E+01   -1.5323343106E+01   -2.1033523422E+02   2.1131311038E+02   2.5000000000E-01   2.214003E+01   0.
13    1    7    0    0    0   2.9000959727E+00   5.6974666107E-01  -1.0425705478E+01   1.0837044229E+01   1.0500000000E-01     0.000  -1.
-13    1    7    0    0    0   1.3347768560E+00   2.3053318132E-01  -4.5560144356E+00   4.7542683287E+00   1.0500000000E-01     0.000   1.
13    1    9    0    0    0  -9.9644039814E+00  -1.1465053718E+01  -1.5706436424E+02   1.5779721906E+02   1.0500000000E-01     0.000  -1.
-13    1    9    0    0    0  -3.3567265497E+00  -3.8582893884E+00  -5.3270869984E+01   5.3515891322E+01   1.0500000000E-01     0.000   1.
</event>
<event>
 13   1  9.2978750E-05  1.2500000E+02  7.5467720E-03  1.2380620E-01
   21   -1    0    0  502  501   0.0000000000E+00   0.0000000000E+00   4.7123309704E+00   4.7123309704E+00   0.0000000000E+00     0.000   1.
   21   -1    0    0  501  502   0.0000000000E+00   0.0000000000E+00  -8.2894219964E+02   8.2894219964E+02   0.0000000000E+00     0.000   1.
   25    2    1    2    0    0   0.0000000000E+00   0.0000000000E+00  -8.2422986867E+02   8.3365453061E+02   1.2500000000E+02  2.386E-08  -1.
3000002    2    3    0    0    0   2.0939703256E+01  -5.2225512506E+01  -5.8087094975E+02   5.8367545399E+02   1.0000000000E+01  9.133E-10   1.
3000002    2    3    0    0    0  -2.0939703256E+01   5.2225512506E+01  -2.4335891892E+02   2.4997907662E+02   1.0000000000E+01  1.553E-09   1.
3000001    1    4    0    0    0   1.1505069677E+01  -2.6169483507E+01  -2.4529903059E+02   2.4696117692E+02   1.0000000000E+00     0.000  -1.
3000022   2   4   0   0   0   9.4346335793E+00   -2.6056028999E+01   -3.3557191916E+02   3.3671427708E+02   2.5000000000E-01   1.611113E+01   0.
3000001    1    5    0    0    0  -1.9118477298E+01   4.4115820472E+01  -1.9084741204E+02   1.9681325279E+02   1.0000000000E+00     0.000   1.
3000022   2   5   0   0   0   -1.8212259578E+00   8.1096920338E+00   -5.2511506876E+01   5.3165823828E+01   2.5000000000E-01   1.132200E+00   0.
13    1    7    0    0    0   5.2442537198E+00  -1.4669158209E+01  -1.8887132296E+02   1.8951272797E+02   1.0500000000E-01     0.000   1.
-13    1    7    0    0    0   4.1903798595E+00  -1.1386870790E+01  -1.4670059620E+02   1.4720154911E+02   1.0500000000E-01     0.000  -1.
13    1    9    0    0    0  -6.0383034964E-01   2.9553573235E+00  -1.9083492099E+01   1.9320699876E+01   1.0500000000E-01     0.000  -1.
-13    1    9    0    0    0  -1.2173956082E+00   5.1543347103E+00  -3.3428014777E+01   3.3845123952E+01   1.0500000000E-01     0.000   1.
</event>
<event>
 13   1  9.2978750E-05  1.2500000E+02  7.5467720E-03  1.2380620E-01
   21   -1    0    0  502  501   0.0000000000E+00   0.0000000000E+00   7.1859587445E+01   7.1859587445E+01   0.0000000000E+00     0.000   1.
   21   -1    0    0  501  502   0.0000000000E+00   0.0000000000E+00  -5.4359482693E+01   5.4359482693E+01   0.0000000000E+00     0.000   1.
   25    2    1    2    0    0   0.0000000000E+00   0.0000000000E+00   1.7500104752E+01   1.2621907014E+02   1.2500000000E+02  7.715E-08  -1.
3000002    2    3    0    0    0  -5.5756062167E+01   2.6215120110E+01   1.1987409385E+01   6.3558390276E+01   1.0000000000E+01  8.259E-10  -1.
3000002    2    3    0    0    0   5.5756062167E+01  -2.6215120110E+01   5.5126953670E+00   6.2660679864E+01   1.0000000000E+01  7.448E-10  -1.
3000001    1    4    0    0    0  -5.7123785419E+00   2.3420223280E+00   4.2795492173E+00   7.5783163496E+00   1.0000000000E+00     0.000   1.
3000022   2   4   0   0   0   -5.0043683625E+01   2.3873097782E+01   7.7078601677E+00   5.5980073927E+01   2.5000000000E-01   6.774331E+00   0.
3000001    1    5    0    0    0   4.5754037956E+01  -2.4051994760E+01   7.4750044578E+00   5.2237975964E+01   1.0000000000E+00     0.000  -1.
3000022   2   5   0   0   0   1.0002024211E+01   -2.1631253493E+00   -1.9623090908E+00   1.0422703899E+01   2.5000000000E-01   2.841976E+00   0.
13    1    7    0    0    0  -2.5414907483E+01   1.2069506376E+01   3.8641489827E+00   2.8399527793E+01   1.0500000000E-01     0.000  -1.
-13    1    7    0    0    0  -2.4628776143E+01   1.1803591405E+01   3.8437111849E+00   2.7580546134E+01   1.0500000000E-01     0.000   1.
13    1    9    0    0    0   5.5135350539E+00  -1.1280912378E+00  -1.1016471875E+00   5.7355305035E+00   1.0500000000E-01     0.000  -1.
-13    1    9    0    0    0   4.4884891575E+00  -1.0350341116E+00  -8.6066190328E-01   4.6871733956E+00   1.0500000000E-01     0.000   1.
</event>
<event>
 13   1  9.2978750E-05  1.2500000E+02  7.5467720E-03  1.2380620E-01
   21   -1    0    0  502  501   0.0000000000E+00   0.0000000000E+00   1.0383545318E+03   1.0383545318E+03   0.0000000000E+00     0.000  -1.
   21   -1    0    0  501  502   0.0000000000E+00   0.0000000000E+00  -3.7619617195E+00   3.7619617195E+00   0.0000000000E+00     0.000  -1.
   25    2    1    2    0    0   0.0000000000E+00   0.0000000000E+00   1.0345925701E+03   1.0421164936E+03   1.2500000000E+02  1.412E-08  -1.
3000002    2    3    0    0    0  -5.7561747554E+01   1.5448542959E+01   6.5022729082E+02   6.5302951081E+02   1.0000000000E+01  5.642E-10   1.
3000002    2    3    0    0    0   5.7561747554E+01  -1.5448542959E+01   3.8436527928E+02   3.8908698279E+02   1.0000000000E+01  1.382E-09   1.
3000001    1    4    0    0    0  -4.7303080008E+01   1.6429292411E+01   5.3020123690E+02   5.3256159704E+02   1.0000000000E+00     0.000   1.
3000022   2   4   0   0   0   -1.0258667546E+01   -9.8074945289E-01   1.2002605391E+02   1.2046791377E+02   2.5000000000E-01   2.055488E+00   0.
3000001    1    5    0    0    0   5.1997380271E+00   7.1621799494E-01   4.6544113491E+01   4.6849810505E+01   1.0000000000E+00     0.000  -1.
3000022   2   5   0   0   0   5.2362009527E+01   -1.6164760953E+01   3.3782116579E+02   3.4223717229E+02   2.5000000000E-01   5.970764E+00   0.
13    1    7    0    0    0  -6.2715095876E+00  -5.6991085150E-01   7.2700156475E+01   7.2972463350E+01   1.0500000000E-01     0.000  -1.
-13    1    7    0    0    0  -3.9871579586E+00  -4.1083860139E-01   4.7325897440E+01   4.7495450418E+01   1.0500000000E-01     0.000   1.
13    1    9    0    0    0   2.3629478703E+01  -7.3613441764E+00   1.5244596338E+02   1.5444197755E+02   1.0500000000E-01     0.000   1.
-13    1    9    0    0    0   2.8732530823E+01  -8.8034167771E+00   1.8537520241E+02   1.8779519474E+02   1.0500000000E-01     0.000  -1.
</event>
<event>
 13   1  9.2978750E-05  1.2500000E+02  7.5467720E-03  1.2380620E-01
   21   -1    0    0  502  501   0.0000000000E+00   0.0000000000E+00   3.7107068790E+00   3.7107068790E+00   0.0000000000E+00     0.000   1.
   21   -1    0    0  501  502   0.0000000000E+00   0.0000000000E+00  -1.0526970002E+03   1.0526970002E+03   0.0000000000E+00     0.000   1.
   25    2    1    2    0    0   0.0000000000E+00   0.0000000000E+00  -1.0489862933E+03   1.0564077070E+03   1.2500000000E+02  1.048E-07  -1.
3000002    2    3    0    0    0  -4.7437563810E+01  -3.7386099160E+01  -4.1819283618E+02   4.2265031776E+02   1.0000000000E+01  2.457E-09   1.
3000002    2    3    0    0    0   4.7437563810E+01   3.7386099160E+01  -6.3079345712E+02   6.3375738924E+02   1.0000000000E+01  1.249E-10   1.
3000001    1    4    0    0    0  -1.4137450655E+01  -1.6962462312E+01  -1.5958326603E+02   1.6110683237E+02   1.0000000000E+00     0.000   1.
3000022   2   4   0   0   0   -3.3300113154E+01   -2.0423636848E+01   -2.5860957015E+02   2.6154348539E+02   2.5000000000E-01   4.446833E-01   0.
3000001    1    5    0    0    0   3.0687439076E+01   2.1073918140E+01  -4.2916787567E+02   4.3078056415E+02   1.0000000000E+00     0.000   1.
3000022   2   5   0   0   0   1.6750124734E+01   1.6312181020E+01   -2.0162558145E+02   2.0297682509E+02   2.5000000000E-01   2.492689E+00   0.
13    1    7    0    0    0  -1.7653811115E+01  -1.0822307403E+01  -1.3753221179E+02   1.3908234859E+02   1.0500000000E-01     0.000  -1.
-13    1    7    0    0    0  -1.5646302040E+01  -9.6013294452E+00  -1.2107735836E+02   1.2246113680E+02   1.0500000000E-01     0.000   1.
13    1    9    0    0    0   5.5783931454E+00   5.3858688317E+00  -6.6512587247E+01   6.6963134189E+01   1.0500000000E-01     0.000   1.
-13    1    9    0    0    0   1.1171731588E+01   1.0926312188E+01  -1.3511299420E+02   1.3601369090E+02   1.0500000000E-01     0.000  -1.
</event>
<event>
 13   1  9.2978750E-05  1.2500000E+02  7.5467720E-03  1.2380620E-01
   21   -1    0    0  502  501   0.0000000000E+00   0.0000000000E+00   4.3608211920E+01   4.3608211920E+01   0.0000000000E+00     0.000  -1.
   21   -1    0    0  501  502   0.0000000000E+00   0.0000000000E+00  -8.9576018553E+01   8.9576018553E+01   0.0000000000E+00     0.000  -1.
   25    2    1    2    0    0   0.0000000000E+00   0.0000000000E+00  -4.5967806633E+01   1.3318423047E+02   1.2500000000E+02  5.171E-08  -1.
3000002    2    3    0    0    0   1.0543952656E-01  -6.0458906208E+01  -9.8928956203E+00   6.2073825733E+01   1.0000000000E+01  4.368E-10   1.
3000002    2    3    0    0    0  -1.0543952656E-01   6.0458906208E+01  -3.6074911013E+01   7.1110404737E+01   1.0000000000E+01  7.627E-12   1.
3000001    1    4    0    0    0  -3.2961016100E+00  -1.1105104729E+01  -2.1353586699E-02   1.1627041448E+01   1.0000000000E+00     0.000   1.
3000022   2   4   0   0   0   3.4015411365E+00   -4.9353801479E+01   -9.8715420336E+00   5.0446784284E+01   2.5000000000E-01   3.170364E+00   0.
3000001    1    5    0    0    0   3.2749312147E+00   1.0290356263E+01  -8.3760140488E+00   1.3703073299E+01   1.0000000000E+00     0.000   1.
3000022   2   5   0   0   0   -3.3803707412E+00   5.0168549944E+01   -2.7698896964E+01   5.7407331438E+01   2.5000000000E-01   1.825529E+00   0.
13    1    7    0    0    0   9.2647536945E-01  -1.3119708103E+01  -2.6511295208E+00   1.3417324996E+01   1.0500000000E-01     0.000   1.
-13    1    7    0    0    0   2.4750657671E+00  -3.6234093376E+01  -7.2204125128E+00   3.7029459288E+01   1.0500000000E-01     0.000  -1.
13    1    9    0    0    0  -2.3842108636E+00   3.5016712355E+01  -1.9289315490E+01   4.0049261200E+01   1.0500000000E-01     0.000   1.
-13    1    9    0    0    0  -9.9615987761E-01   1.5151837589E+01  -8.4095814743E+00   1.7358070239E+01   1.0500000000E-01     0.000  -1.
</event>
<event>
 13   1  9.2978750E-05  1.2500000E+02  7.5467720E-03  1.2380620E-01
   21   -1    0    0  502  501   0.0000000000E+00   0.0000000000E+00   3.3216007170E+01   3.3216007170E+01   0.0000000000E+00     0.000   1.
   21   -1    0    0  501  502   0.0000000000E+00   0.0000000000E+00  -1.1760143174E+02   1.1760143174E+02   0.0000000000E+00     0.000   1.
   25    2    1    2    0    0   0.0000000000E+00   0.0000000000E+00  -8.4385424572E+01   1.5081743891E+02   1.2500000000E+02  1.774E-10  -1.
3000002    2    3    0    0    0   1.5633593753E+01   3.7785251060E+01  -9.7930600929E+01   1.0659520181E+02   1.0000000000E+01  2.419E-10  -1.
3000002    2    3    0    0    0  -1.5633593753E+01  -3.7785251060E+01   1.3545176357E+01   4.4222237097E+01   1.0000000000E+01  9.742E-11  -1.
3000001    1    4    0    0    0   1.5442967971E+01   2.6478506303E+01  -6.7901414560E+01   7.4506366540E+01   1.0000000000E+00     0.000  -1.
3000022   2   4   0   0   0   1.9062578177E-01   1.1306744757E+01   -3.0029186369E+01   3.2088835273E+01   2.5000000000E-01   5.432469E+00   0.
3000001    1    5    0    0    0   1.2065339894E+00  -2.4004320851E+00   4.3825604534E-01   2.8999770385E+00   1.0000000000E+00     0.000   1.
3000022   2   5   0   0   0   -1.6840127742E+01   -3.5384818975E+01   1.3106920312E+01   4.1322260058E+01   2.5000000000E-01   8.783033E+00   0.
13    1    7    0    0    0   4.1637865017E-02   5.2647482744E+00  -1.4117086134E+01   1.5067264317E+01   1.0500000000E-01     0.000  -1.
-13    1    7    0    0    0   1.4898791676E-01   6.0419964824E+00  -1.5912100235E+01   1.7021570955E+01   1.0500000000E-01     0.000   1.
13    1    9    0    0    0  -1.2329645086E+01  -2.5834792256E+01   9.5928577387E+00   3.0190902329E+01   1.0500000000E-01     0.000   1.
-13    1    9    0    0    0  -4.5104826564E+00  -9.5500267188E+00   3.5140625731E+00   1.1131357729E+01   1.0500000000E-01     0.000  -1.
</event>
<event>
 13   1  9.2978750E-05  1.2500000E+02  7.5467720E-03  1.2380620E-01
   21   -1    0    0  502  501   0.0000000000E+00   0.0000000000E+00   1.2209147234E+03   1.2209147234E+03   0.0000000000E+00     0.000  -1.
   21   -1    0    0  501  502   0.0000000000E+00   0.0000000000E+00  -3.1994454036E+00   3.1994454036E+00   0.0000000000E+00     0.000  -1.
   25    2    1    2    0    0   0.0000000000E+00   0.0000000000E+00   1.2177152780E+03   1.2241141688E+03   1.2500000000E+02  7.116E-08  -1.
3000002    2    3    0    0    0   4.2792485775E+01   4.3913571237E+01   6.7574504235E+02   6.7859484292E+02   1.0000000000E+01  1.385E-09  -1.
3000002    2    3    0    0    0  -4.2792485775E+01  -4.3913571237E+01   5.4197023565E+02   5.4551932588E+02   1.0000000000E+01  4.084E-11  -1.
3000001    1    4    0    0    0   3.4104926755E+01   3.8529410797E+01   5.9062446429E+02   5.9286247928E+02   1.0000000000E+00     0.000  -1.
3000022   2   4   0   0   0   8.6875590193E+00   5.3841604405E+00   8.5120578067E+01   8.5732363643E+01   2.5000000000E-01   6.265017E+00   0.
3000001    1    5    0    0    0  -1.1240534312E+01  -1.5466811110E+01   1.3810803851E+02   1.3942884264E+02   1.0000000000E+00     0.000  -1.
3000022   2   5   0   0   0   -3.1551951463E+01   -2.8446760127E+01   4.0386219713E+02   4.0609048324E+02   2.5000000000E-01   5.803293E-02   0.
13    1    7    0    0    0   2.5368424664E+00   1.6145420209E+00   2.5267556176E+01   2.5446075056E+01   1.0500000000E-01     0.000  -1.
-13    1    7    0    0    0   6.1507165528E+00   3.7696184197E+00   5.9853021890E+01   6.0286288586E+01   1.0500000000E-01     0.000   1.
13    1    9    0    0    0  -1.4435726877E+01  -1.3063418032E+01   1.8454391274E+02   1.8556807337E+02   1.0500000000E-01     0.000  -1.
-13    1    9    0    0    0  -1.7116224586E+01  -1.5383342095E+01   2.1931828440E+02   2.2052240987E+02   1.0500000000E-01     0.000   1.
</event>
<event>
 13   1  9.2978750E-05  1.2500000E+02  7.5467720E-03  1.2380620E-01
   21   -1    0    0  502  501   0.0000000000E+00   0.0000000000E+00   3.7968353499E+01   3.7968353499E+01   0.0000000000E+00     0.000  -1.
   21   -1    0    0  501  502   0.0000000000E+00   0.0000000000E+00  -1.0288173281E+02   1.0288173281E+02   0.0000000000E+00     0.000  -1.
   25    2    1    2    0    0   0.0000000000E+00   0.0000000000E+00  -6.4913379313E+01   1.4085008631E+02   1.2500000000E+02  3.446E-09  -1.
3000002    2    3    0    0    0  -2.4069425905E+01   1.4945694638E+01  -9.4210496984E+01   9.8885432666E+01   1.0000000000E+01  9.039E-10   1.
3000002    2    3    0    0    0   2.4069425905E+01  -1.4945694638E+01   2.9297117671E+01   4.1964653644E+01   1.0000000000E+01  2.188E-10   1.
3000001    1    4    0    0    0  -1.8957554110E+01   1.5938819663E+01  -7.9776491634E+01   8.3538754166E+01   1.0000000000E+00     0.000   1.
3000022   2   4   0   0   0   -5.1118717945E+00   -9.9312502494E-01   -1.4434005350E+01   1.5346678501E+01   2.5000000000E-01   8.129190E-01   0.
3000001    1    5    0    0    0   6.7050277302E+00  -9.2665574368E+00   1.4214923598E+01   1.8272671849E+01   1.0000000000E+00     0.000   1.
3000022   2   5   0   0   0   1.7364398174E+01   -5.6791372011E+00   1.5082194073E+01   2.3691981795E+01   2.5000000000E-01   1.784342E+00   0.
13    1    7    0    0    0  -2.2467534226E+00  -4.5984760934E-01  -6.5410273091E+00   6.9322019607E+00   1.0500000000E-01     0.000  -1.
-13    1    7    0    0    0  -2.8651183719E+00  -5.3327741560E-01  -7.8929780408E+00   8.4144765398E+00   1.0500000000E-01     0.000   1.
13    1    9    0    0    0   4.5891285478E+00  -1.5082887221E+00   4.0312010652E+00   6.2925863304E+00   1.0500000000E-01     0.000  -1.
-13    1    9    0    0    0   1.2775269627E+01  -4.1708484790E+00   1.1050993008E+01   1.7399395465E+01   1.0500000000E-01     0.000   1.
</event>
<event>
 13   1  9.2978750E-05  1.2500000E+02  7.5467720E-03  1.2380620E-01
   21   -1    0    0  502  501   0.0000000000E+00   0.0000000000E+00   6.0714133468E+00   6.0714133468E+00   0.0000000000E+00     0.000   1.
   21   -1    0    0  501  502   0.0000000000E+00   0.0000000000E+00  -6.4338396628E+02   6.4338396628E+02   0.0000000000E+00     0.000   1.
   25    2    1    2    0    0   0.0000000000E+00   0.0000000000E+00  -6.3731255294E+02   6.4945537963E+02   1.2500000000E+02  1.784E-08  -1.
3000002    2    3    0    0    0   2.6584346274E+01   3.7744364085E+01  -5.3128986493E+02   5.3338568135E+02   1.0000000000E+01  6.136E-11   1.
3000002    2    3    0    0    0  -2.6584346274E+01  -3.7744364085E+01  -1.0602268801E+02   1.1606969828E+02   1.0000000000E+01  1.301E-11   1.
3000001    1    4    0    0    0   3.3030504419E+00   7.7805025627E-01  -3.6724943745E+01   3.6894945420E+01   1.0000000000E+00     0.000  -1.
3000022   2   4   0   0   0   2.3281295832E+01   3.6966313829E+01   -4.9456492118E+02   4.9649073593E+02   2.5000000000E-01   4.806542E+00   0.
3000001    1    5    0    0    0  -1.3242858757E+01  -2.6635779121E+01  -6.3045331182E+01   6.9717657887E+01   1.0000000000E+00     0.000   1.
3000022   2   5   0   0   0   -1.3341487517E+01   -1.1108584964E+01   -4.2977356828E+01   4.6352040397E+01   2.5000000000E-01   5.410235E+00   0.
13    1    7    0    0    0   1.2786416214E+01   2.0327712900E+01  -2.7112140802E+02   2.7218291141E+02   1.0500000000E-01     0.000   1.
-13    1    7    0    0    0   1.0494879618E+01   1.6638600929E+01  -2.2344351317E+02   2.2430782452E+02   1.0500000000E-01     0.000  -1.
13    1    9    0    0    0  -6.9871341041E+00  -5.7538242406E+00  -2.2282394356E+01   2.4050834905E+01   1.0500000000E-01     0.000  -1.
-13    1    9    0    0    0  -6.3543534128E+00  -5.3547607235E+00  -2.0694962472E+01   2.2301205493E+01   1.0500000000E-01     0.000   1.
</event>
<event>
 13   1  9.2978750E-05  1.2500000E+02  7.5467720E-03  1.2380620E-01
   21   -1    0    0  502  501   0.0000000000E+00   0.0000000000E+00   5.6782977312E+01   5.6782977312E+01   0.0000000000E+00     0.000  -1.
   21   -1    0    0  501  502   0.0000000000E+00   0.0000000000E+00  -6.8792623862E+01   6.8792623862E+01   0.0000000000E+00     0.000  -1.
   25    2    1    2    0    0   0.0000000000E+00   0.0000000000E+00  -1.2009646549E+01   1.2557560117E+02   1.2500000000E+02  9.161E-08  -1.
3000002    2    3    0    0    0   3.2554564465E+01  -4.4642234704E+01  -3.3581567714E+01   6.5425151715E+01   1.0000000000E+01  1.293E-09  -1.
3000002    2    3    0    0    0  -3.2554564465E+01   4.4642234704E+01   2.1571921165E+01   6.0150449455E+01   1.0000000000E+01  4.132E-10  -1.
3000001    1    4    0    0    0   9.2554583874E+00  -1.3282122773E+01  -1.5274802214E+01   2.2279988285E+01   1.0000000000E+00     0.000   1.
3000022   2   4   0   0   0   2.3299106077E+01   -3.1360111931E+01   -1.8306765499E+01   4.3145163430E+01   2.5000000000E-01   5.217790E+00   0.
3000001    1    5    0    0    0  -1.2093133323E+01   1.0020771890E+01   8.3555580052E+00   1.7817830744E+01   1.0000000000E+00     0.000   1.
3000022   2   5   0   0   0   -2.0461431142E+01   3.4621462814E+01   1.3216363160E+01   4.2332618711E+01   2.5000000000E-01   1.347259E+01   0.
13    1    7    0    0    0   1.2838843275E+01  -1.7344382987E+01  -1.0051310348E+01   2.3805532605E+01   1.0500000000E-01     0.000  -1.
-13    1    7    0    0    0   1.0460262802E+01  -1.4015728944E+01  -8.2554551511E+00   1.9339630825E+01   1.0500000000E-01     0.000   1.
13    1    9    0    0    0  -7.9381051827E+00   1.3318393356E+01   5.0726628756E+00   1.6313676751E+01   1.0500000000E-01     0.000  -1.
-13    1    9    0    0    0  -1.2523325959E+01   2.1303069458E+01   8.1437002839E+00   2.6018941960E+01   1.0500000000E-01     0.000   1.
</event>
<event>
 13   1  9.2978750E-05  1.2500000E+02  7.5467720E-03  1.2380620E-01
   21   -1    0    0  502  501   0.0000000000E+00   0.0000000000E+00   2.8280890071E+01   2.8280890071E+01   0.0000000000E+00     0.000   1.
   21   -1    0    0  501  502   0.0000000000E+00   0.0000000000E+00  -1.3812330482E+02   1.3812330482E+02   0.0000000000E+00     0.000   1.
   25    2    1    2    0    0   0.0000000000E+00   0.0000000000E+00  -1.0984241475E+02   1.6640419489E+02   1.2500000000E+02  3.615E-09  -1.
3000002    2    3    0    0    0   4.6760064914E+00   2.5411028207E+01  -1.2950195154E+02   1.3243240103E+02   1.0000000000E+01  7.837E-11   1.
3000002    2    3    0    0    0  -4.6760064914E+00  -2.5411028207E+01   1.9659536787E+01   3.3971793858E+01   1.0000000000E+01  1.071E-09   1.
3000001    1    4    0    0    0   4.9598772427E+00   6.3615987012E+00  -2.7924548547E+01   2.9083513059E+01   1.0000000000E+00     0.000   1.
3000022   2   4   0   0   0   -2.8387075130E-01   1.9049429506E+01   -1.0157740299E+02   1.0334888797E+02   2.5000000000E-01   5.867204E+00   0.
3000001    1    5    0    0    0   7.2629814947E-01   8.6814748569E-04   2.6332060557E+00   2.9088286109E+00   1.0000000000E+00     0.000   1.
3000022   2   5   0   0   0   -5.4023046409E+00   -2.5411896355E+01   1.7026330731E+01   3.1062965247E+01   2.5000000000E-01   1.445242E+00   0.
13    1    7    0    0    0  -2.3919323171E-01   1.4200301025E+01  -7.5764959550E+01   7.7084666978E+01   1.0500000000E-01     0.000   1.
-13    1    7    0    0    0  -4.4677519598E-02   4.8491284811E+00  -2.5812443440E+01   2.6264220994E+01   1.0500000000E-01     0.000  -1.
13    1    9    0    0    0  -3.0811374723E+00  -1.4328095520E+01   9.5374820090E+00   1.7486060660E+01   1.0500000000E-01     0.000  -1.
-13    1    9    0    0    0  -2.3211671685E+00  -1.1083800835E+01   7.4888487220E+00   1.3576904587E+01   1.0500000000E-01     0.000   1.
</event>
<event>
 13   1  9.2978750E-05  1.2500000E+02  7.5467720E-03  1.2380620E-01
   21   -1    0    0  502  501   0.0000000000E+00   0.0000000000E+00   4.3405330025E+00   4.3405330025E+00   0.0000000000E+00     0.000   1.
   21   -1    0    0  501  502   0.0000000000E+00   0.0000000000E+00  -8.9994707971E+02   8.9994707971E+02   0.0000000000E+00     0.000   1.
   25    2    1    2    0    0   0.0000000000E+00   0.0000000000E+00  -8.9560654671E+02   9.0428761272E+02   1.2500000000E+02  2.096E-09  -1.
3000002    2    3    0    0    0   1.7966602972E+01   4.9517329209E+01  -6.8014546819E+02   6.8225554055E+02   1.0000000000E+01  1.105E-09  -1.
3000002    2    3    0    0    0  -1.7966602972E+01  -4.9517329209E+01  -2.1546107852E+02   2.2203207217E+02   1.0000000000E+01  1.793E-10  -1.
3000001    1    4    0    0    0   1.0419375822E+01   1.7512634122E+01  -2.9820462388E+02   2.9890174548E+02   1.0000000000E+00     0.000   1.
3000022   2   4   0   0   0   7.5472271494E+00   3.2004695087E+01   -3.8194084430E+02   3.8335379507E+02   2.5000000000E-01   4.501583E+00   0.
3000001    1    5    0    0    0  -7.3840217354E+00  -3.2640413073E+01  -1.4446683908E+02   1.4829560997E+02   1.0000000000E+00     0.000   1.
3000022   2   5   0   0   0   -1.0582581236E+01   -1.6876916136E+01   -7.0994239448E+01   7.3736462207E+01   2.5000000000E-01   1.121646E+01   0.
13    1    7    0    0    0   5.7695063827E+00   2.4523394375E+01  -2.9262269057E+02   2.9370518234E+02   1.0500000000E-01     0.000  -1.
-13    1    7    0    0    0   1.7777207667E+00   7.4813007116E+00  -8.9318153739E+01   8.9648612726E+01   1.0500000000E-01     0.000   1.
13    1    9    0    0    0  -4.1755802534E+00  -6.6200287137E+00  -2.7677919659E+01   2.8763492700E+01   1.0500000000E-01     0.000   1.
-13    1    9    0    0    0  -6.4070009830E+00  -1.0256887423E+01  -4.3316319789E+01   4.4972969507E+01   1.0500000000E-01     0.000  -1.
</event>
<event>
 13   1  9.2978750E-05  1.2500000E+02  7.5467720E-03  1.2380620E-01
   21   -1    0    0  502  501   0.0000000000E+00   0.0000000000E+00   1.0900796759E+02   1.0900796759E+02   0.0000000000E+00     0.000  -1.
   21   -1    0    0  501  502   0.0000000000E+00   0.0000000000E+00  -3.5834536561E+01   3.5834536561E+01   0.0000000000E+00     0.000  -1.
   25    2    1    2    0    0   0.0000000000E+00   0.0000000000E+00   7.3173431029E+01   1.4484250415E+02   1.2500000000E+02  1.646E-08  -1.
3000002    2    3    0    0    0   5.4380167569E+01   2.9096232253E+01   3.8402888070E+01   7.3338769885E+01   1.0000000000E+01  5.357E-10   1.
3000002    2    3    0    0    0  -5.4380167569E+01  -2.9096232253E+01   3.4770542959E+01   7.1503734265E+01   1.0000000000E+01  1.263E-10   1.
3000001    1    4    0    0    0   4.6150458361E+01   2.3675529340E+01   3.6136862477E+01   6.3223953737E+01   1.0000000000E+00     0.000   1.
3000022   2   4   0   0   0   8.2297092080E+00   5.4207029127E+00   2.2660255923E+00   1.0114816148E+01   2.5000000000E-01   1.125618E+00   0.
3000001    1    5    0    0    0  -1.3148511329E+01  -9.8987840137E+00   1.3419274935E+01   2.1259026669E+01   1.0000000000E+00     0.000  -1.
3000022   2   5   0   0   0   -4.1231656240E+01   -1.9197448239E+01   2.1351268024E+01   5.0244707596E+01   2.5000000000E-01   4.877328E+00   0.
13    1    7    0    0    0   3.0109476141E+00   1.9159549316E+00   8.3714281735E-01   3.6672226455E+00   1.0500000000E-01     0.000  -1.
-13    1    7    0    0    0   5.2187615939E+00   3.5047479811E+00   1.4288827750E+00   6.4475935022E+00   1.0500000000E-01     0.000   1.
13    1    9    0    0    0  -2.6810162607E+01  -1.2478900895E+01   1.3820145494E+01   3.2642230823E+01   1.0500000000E-01     0.000   1.
-13    1    9    0    0    0  -1.4421493632E+01  -6.7185473438E+00   7.5311225300E+00   1.7602476774E+01   1.0500000000E-01     0.000  -1.
</event>
<event>
 13   1  9.2978750E-05  1.2500000E+02  7.5467720E-03  1.2380620E-01
   21   -1    0    0  502  501   0.0000000000E+00   0.0000000000E+00   3.1264244991E+02   3.1264244991E+02   0.0000000000E+00     0.000   1.
   21   -1    0    0  501  502   0.0000000000E+00   0.0000000000E+00  -1.2494304600E+01   1.2494304600E+01   0.0000000000E+00     0.000   1.
   25    2    1    2    0    0   0.0000000000E+00   0.0000000000E+00   3.0014814531E+02   3.2513675451E+02   1.2500000000E+02  1.909E-08  -1.
3000002    2    3    0    0    0  -5.1405482284E+01  -1.9243986784E+01   2.2333980288E+02   2.3020321933E+02   1.0000000000E+01  9.147E-10  -1.
3000002    2    3    0    0    0   5.1405482284E+01   1.9243986784E+01   7.6808342426E+01   9.4933535184E+01   1.0000000000E+01  1.475E-10  -1.
3000001    1    4    0    0    0  -1.2125701477E+01  -6.6494818652E-01   5.6365745031E+01   5.7667772675E+01   1.0000000000E+00     0.000   1.
3000022   2   4   0   0   0   -3.9279780806E+01   -1.8579038598E+01   1.6697405785E+02   1.7253544665E+02   2.5000000000E-01   3.781306E+00   0.
3000001    1    5    0    0    0   5.0568898819E+01   1.7337226878E+01   7.5292753315E+01   9.2346043042E+01   1.0000000000E+00     0.000  -1.
3000022   2   5   0   0   0   8.3658346420E-01   1.9067599059E+00   1.5155891112E+00   2.5874921421E+00   2.5000000000E-01   3.031960E+00   0.
13    1    7    0    0    0  -2.9146226299E+01  -1.3818385850E+01   1.2391624607E+02   1.2804568466E+02   1.0500000000E-01     0.000  -1.
-13    1    7    0    0    0  -1.0133554507E+01  -4.7606527480E+00   4.3057811778E+01   4.4489761987E+01   1.0500000000E-01     0.000   1.
13    1    9    0    0    0   4.9066875132E-01   1.2240553050E+00   1.0074752822E+00   1.6628585801E+00   1.0500000000E-01     0.000  -1.
-13    1    9    0    0    0   3.4591471289E-01   6.8270460091E-01   5.0811382893E-01   9.2463356193E-01   1.0500000000E-01     0.000   1.
</event>
<event>
 13   1  9.2978750E-05  1.2500000E+02  7.5467720E-03  1.2380620E-01
   21   -1    0    0  502  501   0.0000000000E+00   0.0000000000E+00   1.8733980033E+01   1.8733980033E+01   0.0000000000E+00     0.000  -1.
   21   -1    0    0  501  502   0.0000000000E+00   0.0000000000E+00  -2.0851148518E+02   2.0851148518E+02   0.0000000000E+00     0.000  -1.
   25    2    1    2    0    0   0.0000000000E+00   0.0000000000E+00  -1.8977750515E+02   2.2724546521E+02   1.2500000000E+02  1.502E-08  -1.
3000002    2    3    0    0    0   4.0410748621E+01   3.1519001405E+01  -1.5733187520E+02   1.6577030798E+02   1.0000000000E+01  2.170E-10  -1.
3000002    2    3    0    0    0  -4.0410748621E+01  -3.1519001405E+01  -3.2445629951E+01   6.1475157231E+01   1.0000000000E+01  9.828E-11  -1.
3000001    1    4    0    0    0   1.0165933660E+00   2.0282623225E+00  -3.7370528519E+00   4.4847379119E+00   1.0000000000E+00     0.000   1.
3000022   2   4   0   0   0   3.9394155255E+01   2.9490739083E+01   -1.5359482235E+02   1.6128557007E+02   2.5000000000E-01   2.913268E+00   0.
3000001    1    5    0    0    0  -2.1342792973E+01  -1.1287646157E+01  -1.8089040704E+01   3.0185081767E+01   1.0000000000E+00     0.000  -1.
3000022   2   5   0   0   0   -1.9067955648E+01   -2.0231355249E+01   -1.4356589246E+01   3.1290075464E+01   2.5000000000E-01   2.656783E+01   0.
13    1    7    0    0    0   2.4379956790E+01   1.8281877854E+01  -9.5295371166E+01   1.0004912864E+02   1.0500000000E-01     0.000   1.
-13    1    7    0    0    0   1.5014198465E+01   1.1208861229E+01  -5.8299451182E+01   6.1236441428E+01   1.0500000000E-01     0.000  -1.
13    1    9    0    0    0  -7.7616228001E+00  -8.3188744618E+00  -5.8437719892E+00   1.2790901331E+01   1.0500000000E-01     0.000   1.
-13    1    9    0    0    0  -1.1306332847E+01  -1.1912480787E+01  -8.5128172571E+00   1.8499174133E+01   1.0500000000E-01     0.000  -1.
</event>
<event>
 13   1  9.2978750E-05  1.2500000E+02  7.5467720E-03  1.2380620E-01
   21   -1    0    0  502  501   0.0000000000E+00   0.0000000000E+00   4.4719409564E+02   4.4719409564E+02   0.0000000000E+00     0.000  -1.
   21   -1    0    0  501  502   0.0000000000E+00   0.0000000000E+00  -8.7350214103E+00   8.7350214103E+00   0.0000000000E+00     0.000  -1.
   25    2    1    2    0    0   0.0000000000E+00   0.0000000000E+00   4.3845907423E+02   4.5592911705E+02   1.2500000000E+02  4.358E-09  -1.
3000002    2    3    0    0    0  -5.8215001051E+01  -9.8252886877E+00   1.5390816231E+02   1.6514613247E+02   1.0000000000E+01  4.987E-10   1.
3000002    2    3    0    0    0   5.8215001051E+01   9.8252886877E+00   2.8455091192E+02   2.9078298458E+02   1.0000000000E+01  2.878E-10   1.
3000001    1    4    0    0    0  -2.4343768564E+01  -7.6832239675E+00   5.6894419325E+01   6.2366865792E+01   1.0000000000E+00     0.000  -1.
3000022   2   4   0   0   0   -3.3871232487E+01   -2.1420647202E+00   9.7013742987E+01   1.0277926668E+02   2.5000000000E-01   1.044739E+01   0.
3000001    1    5    0    0    0   4.6774749294E+01   8.5040496998E+00   2.0772182970E+02   2.1309517725E+02   1.0000000000E+00     0.000   1.
3000022   2   5   0   0   0   1.1440251757E+01   1.3212389879E+00   7.6829082219E+01   7.7687807328E+01   2.5000000000E-01   9.949378E+00   0.
13    1    7    0    0    0  -2.4155942647E+01  -1.4914578208E+00   6.9244347508E+01   7.3352059947E+01   1.0500000000E-01     0.000   1.
-13    1    7    0    0    0  -9.7152898397E+00  -6.5060689936E-01   2.7769395479E+01   2.9427206736E+01   1.0500000000E-01     0.000  -1.
13    1    9    0    0    0   5.6061284617E+00   5.9597319707E-01   3.7909880870E+01   3.8326935085E+01   1.0500000000E-01     0.000  -1.
-13    1    9    0    0    0   5.8341232951E+00   7.2526579081E-01   3.8919201349E+01   3.9360872243E+01   1.0500000000E-01     0.000   1.
</event>
<event>
 13   1  9.2978750E-05  1.2500000E+02  7.5467720E-03  1.2380620E-01
   21   -1    0    0  502  501   0.0000000000E+00   0.0000000000E+00   2.8039904316E+02   2.8039904316E+02   0.0000000000E+00     0.000  -1.
   21   -1    0    0  501  502   0.0000000000E+00   0.0000000000E+00  -1.3931038979E+01   1.3931038979E+01   0.0000000000E+00     0.000  -1.
   25    2    1    2    0    0   0.0000000000E+00   0.0000000000E+00   2.6646800418E+02   2.9433008214E+02   1.2500000000E+02  9.565E-08  -1.
3000002    2    3    0    0    0  -8.3083122325E+00  -2.2858832175E+01   2.6673809366E+02   2.6803127591E+02   1.0000000000E+01  3.933E-10   1.
3000002    2    3    0    0    0   8.3083122325E+00   2.2858832175E+01  -2.7008947756E-01   2.6298806225E+01   1.0000000000E+01  5.109E-10   1.
3000001    1    4    0    0    0  -5.0323971571E+00  -2.1603401916E+01   2.0644035787E+02   2.0763105104E+02   1.0000000000E+00     0.000   1.
3000022   2   4   0   0   0   -3.2759150754E+00   -1.2554302589E+00   6.0297735784E+01   6.0400224879E+01   2.5000000000E-01   3.754550E+00   1.
3000001    1    5    0    0    0   6.5098382449E+00   1.4612414912E+01  -4.7803208889E+00   1.6725792398E+01   1.0000000000E+00     0.000   1.
3000022   2   5   0   0   0   1.7984739876E+00   8.2464172629E+00   4.5102314113E+00   9.5730138275E+00   2.5000000000E-01   6.423198E+00   0.
13    1    7    0    0    0  -1.9121033143E+00  -6.6806778069E-01   3.5186837481E+01   3.5245240964E+01   1.0500000000E-01     0.000   1.
-13    1    7    0    0    0  -1.3638117611E+00  -5.8736247817E-01   2.5110898303E+01   2.5154983915E+01   1.0500000000E-01     0.000   1.
13    1    9    0    0    0   9.3607630555E-01   3.9793930683E+00   2.1706837962E+00   4.6297625409E+00   1.0500000000E-01     0.000   1.
-13    1    9    0    0    0   8.6239768206E-01   4.2670241945E+00   2.3395476151E+00   4.9432512866E+00   1.0500000000E-01     0.000  -1.
</event>
<event>
 13   1  9.2978750E-05  1.2500000E+02  7.5467720E-03  1.2380620E-01
   21   -1    0    0  502  501   0.0000000000E+00   0.0000000000E+00   2.7604751403E+01   2.7604751403E+01   0.0000000000E+00     0.000  -1.
   21   -1    0    0  501  502   0.0000000000E+00   0.0000000000E+00  -1.4150643645E+02   1.4150643645E+02   0.0000000000E+00     0.000  -1.
   25    2    1    2    0    0   0.0000000000E+00   0.0000000000E+00  -1.1390168504E+02   1.6911118785E+02   1.2500000000E+02  3.585E-09  -1.
3000002    2    3    0    0    0  -2.9241543688E+01   5.4324414151E+01  -5.6679757365E+01   8.4373009577E+01   1.0000000000E+01  3.436E-10   1.
3000002    2    3    0    0    0   2.9241543688E+01  -5.4324414151E+01  -5.7221927675E+01   8.4738178273E+01   1.0000000000E+01  9.290E-10   1.
3000001    1    4    0    0    0  -2.6515462899E+01   5.0419837208E+01  -5.5321502866E+01   7.9414724304E+01   1.0000000000E+00     0.000   1.
3000022   2   4   0   0   0   -2.7260807890E+00   3.9045769429E+00   -1.3582544996E+00   4.9582852738E+00   2.5000000000E-01   1.106079E+01   0.
3000001    1    5    0    0    0   2.5184048666E+01  -4.9876051652E+01  -5.4723907881E+01   7.8214851080E+01   1.0000000000E+00     0.000   1.
3000022   2   5   0   0   0   4.0574950217E+00   -4.4483624997E+00   -2.4980197934E+00   6.5233271930E+00   2.5000000000E-01   8.920504E+00   0.
13    1    7    0    0    0  -9.5366757932E-01   1.4694073059E+00  -5.0000204727E-01   1.8247374413E+00   1.0500000000E-01     0.000   1.
-13    1    7    0    0    0  -1.7724132097E+00   2.4351696370E+00  -8.5825245229E-01   3.1335478325E+00   1.0500000000E-01     0.000  -1.
13    1    9    0    0    0   2.6193376353E+00  -2.9295539895E+00  -1.5860742692E+00   4.2390886771E+00   1.0500000000E-01     0.000  -1.
-13    1    9    0    0    0   1.4381573864E+00  -1.5188085102E+00  -9.1194552413E-01   2.2842385159E+00   1.0500000000E-01     0.000   1.
</event>
<event>
 13   1  9.2978750E-05  1.2500000E+02  7.5467720E-03  1.2380620E-01
   21   -1    0    0  502  501   0.0000000000E+00   0.0000000000E+00   7.0183587470E+02   7.0183587470E+02   0.0000000000E+00     0.000   1.
   21   -1    0    0  501  502   0.0000000000E+00   0.0000000000E+00  -5.5657599459E+00   5.5657599459E+00   0.0000000000E+00     0.000   1.
   25    2    1    2    0    0   0.0000000000E+00   0.0000000000E+00   6.9627011475E+02   7.0740163465E+02   1.2500000000E+02  2.251E-08  -1.
3000002    2    3    0    0    0  -3.0260975698E+00  -6.1319509143E+01   3.8256360690E+02   3.8758760660E+02   1.0000000000E+01  2.276E-09  -1.
3000002    2    3    0    0    0   3.0260975698E+00   6.1319509143E+01   3.1370650785E+02   3.1981402805E+02   1.0000000000E+01  4.827E-10  -1.
3000001    1    4    0    0    0  -6.4751808651E+00  -4.7741733484E+01   2.9790241217E+02   3.0177483040E+02   1.0000000000E+00     0.000  -1.
3000022   2   4   0   0   0   3.4490832953E+00   -1.3577775659E+01   8.4661194728E+01   8.5812776206E+01   2.5000000000E-01   9.578282E-01   0.
3000001    1    5    0    0    0  -2.9375901363E-01   1.4220718857E+01   9.5407943630E+01   9.6467563703E+01   1.0000000000E+00     0.000   1.
3000022   2   5   0   0   0   3.3198565834E+00   4.7098790287E+01   2.1829856422E+02   2.2334646434E+02   2.5000000000E-01   3.510979E+00   0.
13    1    7    0    0    0   8.2860160814E-01  -3.2149990988E+00   2.0144913049E+01   2.0416937738E+01   1.0500000000E-01     0.000  -1.
-13    1    7    0    0    0   2.6204816872E+00  -1.0362776561E+01   6.4516281679E+01   6.5395838469E+01   1.0500000000E-01     0.000   1.
13    1    9    0    0    0   2.5189336647E+00   3.5922641916E+01   1.6644148030E+02   1.7029256772E+02   1.0500000000E-01     0.000   1.
-13    1    9    0    0    0   8.0092291874E-01   1.1176148371E+01   5.1857083917E+01   5.3053896627E+01   1.0500000000E-01     0.000  -1.
</event>
<event>
 13   1  9.2978750E-05  1.2500000E+02  7.5467720E-03  1.2380620E-01
   21   -1    0    0  502  501   0.0000000000E+00   0.0000000000E+00   2.8325777544E+02   2.8325777544E+02   0.0000000000E+00     0.000  -1.
   21   -1    0    0  501  502   0.0000000000E+00   0.0000000000E+00  -1.3790442271E+01   1.3790442271E+01   0.0000000000E+00     0.000  -1.
   25    2    1    2    0    0   0.0000000000E+00   0.0000000000E+00   2.6946733317E+02   2.9704821771E+02   1.2500000000E+02  6.619E-09  -1.
3000002    2    3    0    0    0  -5.6266635769E+01  -2.4922196728E+01   1.2432091772E+02   1.3907818223E+02   1.0000000000E+01  2.656E-10   1.
3000002    2    3    0    0    0   5.6266635769E+01   2.4922196728E+01   1.4514641545E+02   1.5797003548E+02   1.0000000000E+01  4.279E-10   1.
3000001    1    4    0    0    0  -2.9109871164E+01  -1.3903818144E+01   5.4250187794E+01   6.3125142645E+01   1.0000000000E+00     0.000   1.
3000022   2   4   0   0   0   -2.7156764606E+01   -1.1018378584E+01   7.0070729926E+01   7.5953039589E+01   2.5000000000E-01   2.773654E-01   0.
3000001    1    5    0    0    0   5.2118711594E+01   2.5659768122E+01   1.3415853525E+02   1.4619950882E+02   1.0000000000E+00     0.000   1.
3000022   2   5   0   0   0   4.1479241752E+00   -7.3757139455E-01   1.0987880197E+01   1.1770526656E+01   2.5000000000E-01   7.135978E+00   0.
13    1    7    0    0    0  -1.4521829601E+01  -5.8699228144E+00   3.7615782883E+01   4.0746750492E+01   1.0500000000E-01     0.000   1.
-13    1    7    0    0    0  -1.2634935005E+01  -5.1484557695E+00   3.2454947044E+01   3.5206289097E+01   1.0500000000E-01     0.000  -1.
13    1    9    0    0    0   2.6169755405E+00  -5.2511695116E-01   6.9693723635E+00   7.4637446991E+00   1.0500000000E-01     0.000   1.
-13    1    9    0    0    0   1.5309486347E+00  -2.1245444339E-01   4.0185078338E+00   4.3067819567E+00   1.0500000000E-01     0.000  -1.
</event>
<event>
 13   1  9.2978750E-05  1.2500000E+02  7.5467720E-03  1.2380620E-01
   21   -1    0    0  502  501   0.0000000000E+00   0.0000000000E+00   2.7981885106E+01   2.7981885106E+01   0.0000000000E+00     0.000   1.
   21   -1    0    0  501  502   0.0000000000E+00   0.0000000000E+00  -1.3959924377E+02   1.3959924377E+02   0.0000000000E+00     0.000   1.
   25    2    1    2    0    0   0.0000000000E+00   0.0000000000E+00  -1.1161735866E+02   1.6758112888E+02   1.2500000000E+02  2.763E-10  -1.
3000002    2    3    0    0    0  -4.5048074588E+01   4.0471133083E+01  -4.0002184857E+01   7.3262653723E+01   1.0000000000E+01  7.895E-10   1.
3000002    2    3    0    0    0   4.5048074588E+01  -4.0471133083E+01  -7.1615173803E+01   9.4318475157E+01   1.0000000000E+01  7.230E-10   1.
3000001    1    4    0    0    0  -2.5101705676E+01   2.4688130682E+01  -1.7633282626E+01   3.9389492007E+01   1.0000000000E+00     0.000   1.
3000022   2   4   0   0   0   -1.9946368912E+01   1.5783002401E+01   -2.2368902231E+01   3.3873161716E+01   2.5000000000E-01   4.677557E-02   0.
3000001    1    5    0    0    0   8.0877879815E+00  -3.1591750591E+00  -8.2676394050E+00   1.2031066570E+01   1.0000000000E+00     0.000  -1.
3000022   2   5   0   0   0   3.6960286607E+01   -3.7311958024E+01   -6.3347534398E+01   8.2287408587E+01   2.5000000000E-01   4.795321E+00   0.
13    1    7    0    0    0  -6.2504663347E+00   4.9276966937E+00  -7.0627297512E+00   1.0641602353E+01   1.0500000000E-01     0.000   1.
-13    1    7    0    0    0  -1.3695902578E+01   1.0855305708E+01  -1.5306172480E+01   2.3231559362E+01   1.0500000000E-01     0.000  -1.
13    1    9    0    0    0   1.9263442928E+01  -1.9541896774E+01  -3.3112091532E+01   4.3004506666E+01   1.0500000000E-01     0.000   1.
-13    1    9    0    0    0   1.7696843679E+01  -1.7770061250E+01  -3.0235442867E+01   3.9282901921E+01   1.0500000000E-01     0.000  -1.
</event>
<event>
 13   1  9.2978750E-05  1.2500000E+02  7.5467720E-03  1.2380620E-01
   21   -1    0    0  502  501   0.0000000000E+00   0.0000000000E+00   2.0777263017E+02   2.0777263017E+02   0.0000000000E+00     0.000  -1.
   21   -1    0    0  501  502   0.0000000000E+00   0.0000000000E+00  -1.8800599466E+01   1.8800599466E+01   0.0000000000E+00     0.000  -1.
   25    2    1    2    0    0   0.0000000000E+00   0.0000000000E+00   1.8897203071E+02   2.2657322964E+02   1.2500000000E+02  2.033E-09  -1.
3000002    2    3    0    0    0  -7.8752884302E+00   1.9679458687E+01   1.9950575492E+02   2.0087769291E+02   1.0000000000E+01  3.228E-09   1.
3000002    2    3    0    0    0   7.8752884302E+00  -1.9679458687E+01  -1.0533724212E+01   2.5695536730E+01   1.0000000000E+01  5.818E-11   1.
3000001    1    4    0    0    0  -5.1612138701E+00   2.3728126501E+00   4.0257924109E+01   4.0669015503E+01   1.0000000000E+00     0.000  -1.
3000022   2   4   0   0   0   -2.7140745601E+00   1.7306646037E+01   1.5924783081E+02   1.6020867741E+02   2.5000000000E-01   3.704443E+00   0.
3000001    1    5    0    0    0   4.7701160010E+00  -1.1420815025E+01  -6.3571907291E-01   1.2433549825E+01   1.0000000000E+00     0.000   1.
3000022   2   5   0   0   0   3.1051724292E+00   -8.2586436615E+00   -9.8980051387E+00   1.3261986905E+01   2.5000000000E-01   5.232267E+00   0.
13    1    7    0    0    0  -1.6814235616E+00   1.1091438583E+01   1.0188563678E+02   1.0250142049E+02   1.0500000000E-01     0.000  -1.
-13    1    7    0    0    0  -1.0326509985E+00   6.2152074537E+00   5.7362194032E+01   5.7707256917E+01   1.0500000000E-01     0.000   1.
13    1    9    0    0    0   8.8008760906E-01  -2.4651584431E+00  -2.9525919990E+00   3.9471996227E+00   1.0500000000E-01     0.000   1.
-13    1    9    0    0    0   2.2250848202E+00  -5.7934852184E+00  -6.9454131396E+00   9.3147872822E+00   1.0500000000E-01     0.000  -1.
</event>
<event>
 13   1  9.2978750E-05  1.2500000E+02  7.5467720E-03  1.2380620E-01
   21   -1    0    0  502  501   0.0000000000E+00   0.0000000000E+00   7.5636075504E+00   7.5636075504E+00   0.0000000000E+00     0.000  -1.
   21   -1    0    0  501  502   0.0000000000E+00   0.0000000000E+00  -5.1645328952E+02   5.1645328952E+02   0.0000000000E+00     0.000  -1.
   25    2    1    2    0    0   0.0000000000E+00   0.0000000000E+00  -5.0888968197E+02   5.2401689707E+02   1.2500000000E+02  6.569E-09  -1.
3000002    2    3    0    0    0  -1.1890197093E+01   1.9101048524E+01  -4.9526551743E+02   4.9587716180E+02   1.0000000000E+01  1.572E-09  -1.
3000002    2    3    0    0    0   1.1890197093E+01  -1.9101048524E+01  -1.3624164543E+01   2.8139735271E+01   1.0000000000E+01  5.771E-10  -1.
3000001    1    4    0    0    0   1.4747213225E+00   9.0793002532E-01  -4.9389020476E+01   4.9429490019E+01   1.0000000000E+00     0.000   1.
3000022   2   4   0   0   0   -1.3364918416E+01   1.8193118499E+01   -4.4587649695E+02   4.4644767178E+02   2.5000000000E-01   2.059817E-01   0.
3000001    1    5    0    0    0   3.3556513161E+00  -2.1071313526E+00   9.3048698996E-01   4.1912055940E+00   1.0000000000E+00     0.000  -1.
3000022   2   5   0   0   0   8.5345457774E+00   -1.6993917171E+01   -1.4554651533E+01   2.3948529677E+01   2.5000000000E-01   2.498375E+00   0.
13    1    7    0    0    0  -7.2962571337E+00   9.8193340572E+00  -2.4173268107E+02   2.4204205174E+02   1.0500000000E-01     0.000   1.
-13    1    7    0    0    0  -6.0686612823E+00   8.3737844413E+00  -2.0414381588E+02   2.0440562004E+02   1.0500000000E-01     0.000  -1.
13    1    9    0    0    0   3.7394635799E+00  -7.5631076694E+00  -6.5084332952E+00   1.0656214827E+01   1.0500000000E-01     0.000   1.
-13    1    9    0    0    0   4.7950821975E+00  -9.4308095018E+00  -8.0462182380E+00   1.3292314850E+01   1.0500000000E-01     0.000  -1.
</event>
<event>
 13   1  9.2978750E-05  1.2500000E+02  7.5467720E-03  1.2380620E-01
   21   -1    0    0  502  501   0.0000000000E+00   0.0000000000E+00   6.5059208942E+01   6.5059208942E+01   0.0000000000E+00     0.000   1.
   21   -1    0    0  501  502   0.0000000000E+00   0.0000000000E+00  -6.0041461671E+01   6.0041461671E+01   0.0000000000E+00     0.000   1.
   25    2    1    2    0    0   0.0000000000E+00   0.0000000000E+00   5.0177472714E+00   1.2510067061E+02   1.2500000000E+02  2.159E-09  -1.
3000002    2    3    0    0    0  -4.6514249211E+01  -3.1007791694E+00  -3.7934806539E+01   6.0928152427E+01   1.0000000000E+01  1.015E-09   1.
3000002    2    3    0    0    0   4.6514249211E+01   3.1007791694E+00   4.2952553810E+01   6.4172518183E+01   1.0000000000E+01  4.789E-10   1.
3000001    1    4    0    0    0  -1.5274382722E+01  -5.6378620713E+00  -1.2113486896E+01   2.0318189414E+01   1.0000000000E+00     0.000   1.
3000022   2   4   0   0   0   -3.1239866488E+01   2.5370829019E+00   -2.5821319643E+01   4.0609963014E+01   2.5000000000E-01   4.050036E+00   0.
3000001    1    5    0    0    0   3.8338124625E+01   1.6847813639E+00   2.9706121492E+01   4.8539715101E+01   1.0000000000E+00     0.000   1.
3000022   2   5   0   0   0   8.1761245858E+00   1.4159978055E+00   1.3246432318E+01   1.5632803082E+01   2.5000000000E-01   3.856367E+00   0.
13    1    7    0    0    0  -1.7002784732E+01   1.3398481613E+00  -1.3982190171E+01   2.2054535786E+01   1.0500000000E-01     0.000   1.
-13    1    7    0    0    0  -1.4237081756E+01   1.1972347405E+00  -1.1839129472E+01   1.8555427228E+01   1.0500000000E-01     0.000  -1.
13    1    9    0    0    0   3.0869076144E+00   4.9357603212E-01   5.0760607306E+00   5.9623848803E+00   1.0500000000E-01     0.000   1.
-13    1    9    0    0    0   5.0892169713E+00   9.2242177340E-01   8.1703715876E+00   9.6704182014E+00   1.0500000000E-01     0.000  -1.
</event>
<event>
 13   1  9.2978750E-05  1.2500000E+02  7.5467720E-03  1.2380620E-01
   21   -1    0    0  502  501   0.0000000000E+00   0.0000000000E+00   7.9228226448E+01   7.9228226448E+01   0.0000000000E+00     0.000   1.
   21   -1    0    0  501  502   0.0000000000E+00   0.0000000000E+00  -4.9303766790E+01   4.9303766790E+01   0.0000000000E+00     0.000   1.
   25    2    1    2    0    0   0.0000000000E+00   0.0000000000E+00   2.9924459657E+01   1.2853199324E+02   1.2500000000E+02  9.096E-09  -1.
3000002    2    3    0    0    0   3.4622226785E+01   4.1772095766E+01   4.5162921429E+01   7.1297237283E+01   1.0000000000E+01  2.006E-10  -1.
3000002    2    3    0    0    0  -3.4622226785E+01  -4.1772095766E+01  -1.5238461772E+01   5.7234755957E+01   1.0000000000E+01  2.929E-11  -1.
3000001    1    4    0    0    0   2.8885607967E+01   3.2260007602E+01   4.0323140891E+01   5.9178054458E+01   1.0000000000E+00     0.000  -1.
3000022   2   4   0   0   0   5.7366188182E+00   9.5120881633E+00   4.8397805377E+00   1.2119182825E+01   2.5000000000E-01   2.142473E+00   0.
3000001    1    5    0    0    0  -2.4832572262E+01  -2.3562549581E+01  -1.2102836203E+01   3.6322569183E+01   1.0000000000E+00     0.000   1.
3000022   2   5   0   0   0   -9.7896545233E+00   -1.8209546185E+01   -3.1356255689E+00   2.0912186773E+01   2.5000000000E-01   2.989586E+00   0.
13    1    7    0    0    0   3.8857214278E+00   6.5157134560E+00   3.3410963811E+00   8.2901931752E+00   1.0500000000E-01     0.000  -1.
-13    1    7    0    0    0   1.8508973905E+00   2.9963747073E+00   1.4986841566E+00   3.8289896497E+00   1.0500000000E-01     0.000   1.
13    1    9    0    0    0  -7.4894464400E+00  -1.3923291779E+01  -2.3831357843E+00   1.5988753019E+01   1.0500000000E-01     0.000  -1.
-13    1    9    0    0    0  -2.3002080833E+00  -4.2862544060E+00  -7.5248978469E-01   4.9234337545E+00   1.0500000000E-01     0.000   1.
</event>
<event>
 13   1  9.2978750E-05  1.2500000E+02  7.5467720E-03  1.2380620E-01
   21   -1    0    0  502  501   0.0000000000E+00   0.0000000000E+00   9.2045818788E+01   9.2045818788E+01   0.0000000000E+00     0.000  -1.
   21   -1    0    0  501  502   0.0000000000E+00   0.0000000000E+00  -4.2438103669E+01   4.2438103669E+01   0.0000000000E+00     0.000  -1.
   25    2    1    2    0    0   0.0000000000E+00   0.0000000000E+00   4.9607715119E+01   1.3448392246E+02   1.2500000000E+02  4.514E-08  -1.
3000002    2    3    0    0    0  -1.4938857170E+01   4.0688686718E+01  -2.2430588134E+01   4.9818369749E+01   1.0000000000E+01  3.067E-10   1.
3000002    2    3    0    0    0   1.4938857170E+01  -4.0688686718E+01   7.2038303253E+01   8.4665552711E+01   1.0000000000E+01  1.250E-09   1.
3000001    1    4    0    0    0  -1.1517959239E+01   2.2771884686E+01  -8.6771136823E+00   2.6972475212E+01   1.0000000000E+00     0.000  -1.
3000022   2   4   0   0   0   -3.4208979310E+00   1.7916802032E+01   -1.3753474452E+01   2.2845894537E+01   2.5000000000E-01   2.598082E+00   0.
3000001    1    5    0    0    0  -2.0367461524E-01  -1.1701985960E+01   2.0478464584E+01   2.3608165335E+01   1.0000000000E+00     0.000   1.
3000022   2   5   0   0   0   1.5142531785E+01   -2.8986700757E+01   5.1559838669E+01   6.1057387376E+01   2.5000000000E-01   3.891977E+00   0.
13    1    7    0    0    0  -8.1784399917E-01   4.2123211268E+00  -3.2442269503E+00   5.3803858214E+00   1.0500000000E-01     0.000   1.
-13    1    7    0    0    0  -2.6030539319E+00   1.3704480905E+01  -1.0509247501E+01   1.7465508716E+01   1.0500000000E-01     0.000  -1.
13    1    9    0    0    0   5.4945480993E+00  -1.0530166691E+01   1.8835039105E+01   2.2267559194E+01   1.0500000000E-01     0.000  -1.
-13    1    9    0    0    0   9.6479836858E+00  -1.8456534066E+01   3.2724799564E+01   3.8789828183E+01   1.0500000000E-01     0.000   1.
</event>
<event>
 13   1  9.2978750E-05  1.2500000E+02  7.5467720E-03  1.2380620E-01
   21   -1    0    0  502  501   0.0000000000E+00   0.0000000000E+00   1.7988038324E+02   1.7988038324E+02   0.0000000000E+00     0.000   1.
   21   -1    0    0  501  502   0.0000000000E+00   0.0000000000E+00  -2.1715819867E+01   2.1715819867E+01   0.0000000000E+00     0.000   1.
   25    2    1    2    0    0   0.0000000000E+00   0.0000000000E+00   1.5816456337E+02   2.0159620310E+02   1.2500000000E+02  1.222E-08  -1.
3000002    2    3    0    0    0   4.8386794476E-01  -2.9798121050E+01   1.6620301387E+02   1.6914964962E+02   1.0000000000E+01  6.688E-10  -1.
3000002    2    3    0    0    0  -4.8386794476E-01   2.9798121050E+01  -8.0384505014E+00   3.2446553481E+01   1.0000000000E+01  3.992E-10  -1.
3000001    1    4    0    0    0   1.0820815896E+00  -3.0434436266E+01   1.5938592935E+02   1.6227230289E+02   1.0000000000E+00     0.000  -1.
3000022   2   4   0   0   0   -5.9821364483E-01   6.3631521597E-01   6.8170845262E+00   6.8773467308E+00   2.5000000000E-01   4.232948E+00   1.
3000001    1    5    0    0    0  -3.2479558323E-01   1.4639015268E+01  -9.0638513106E+00   1.7249917703E+01   1.0000000000E+00     0.000  -1.
3000022   2   5   0   0   0   -1.5907236153E-01   1.5159105782E+01   1.0254008092E+00   1.5196635778E+01   2.5000000000E-01   2.169959E+00   0.
13    1    7    0    0    0  -1.4173886716E-01   1.3542143386E-01   1.5972055478E+00   1.6126126110E+00   1.0500000000E-01     0.000   1.
-13    1    7    0    0    0  -4.5647477767E-01   5.0089378212E-01   5.2198789784E+00   5.2647341198E+00   1.0500000000E-01     0.000   1.
13    1    9    0    0    0  -7.3023772775E-02   6.8835146812E+00   5.3262510428E-01   6.9052748924E+00   1.0500000000E-01     0.000   1.
-13    1    9    0    0    0  -8.6048588753E-02   8.2755911012E+00   4.9277570491E-01   8.2913608852E+00   1.0500000000E-01     0.000  -1.
</event>
<event>
 13   1  9.2978750E-05  1.2500000E+02  7.5467720E-03  1.2380620E-01
   21   -1    0    0  502  501   0.0000000000E+00   0.0000000000E+00   4.4296582846E+02   4.4296582846E+02   0.0000000000E+00     0.000   1.
   21   -1    0    0  501  502   0.0000000000E+00   0.0000000000E+00  -8.8184003123E+00   8.8184003123E+00   0.0000000000E+00     0.000   1.
   25    2    1    2    0    0   0.0000000000E+00   0.0000000000E+00   4.3414742814E+02   4.5178422877E+02   1.2500000000E+02  2.321E-09  -1.
3000002    2    3    0    0    0  -1.4259323282E+01   5.5291753618E+01   3.0150733447E+02   3.0702960616E+02   1.0000000000E+01  7.825E-10   1.
3000002    2    3    0    0    0   1.4259323282E+01  -5.5291753618E+01   1.3264009367E+02   1.4475462261E+02   1.0000000000E+01  1.541E-09   1.
3000001    1    4    0    0    0  -4.3862765484E+00   3.3129632127E+01   1.8918503289E+02   1.9211660162E+02   1.0000000000E+00     0.000  -1.
3000022   2   4   0   0   0   -9.8730467333E+00   2.2162121491E+01   1.1232230158E+02   1.1491300454E+02   2.5000000000E-01   1.342038E+00   0.
3000001    1    5    0    0    0   1.3681556469E+01  -5.2937113519E+01   1.1988156615E+02   1.3176537055E+02   1.0000000000E+00     0.000   1.
3000022   2   5   0   0   0   5.7776681312E-01   -2.3546400989E+00   1.2758527520E+01   1.2989252056E+01   2.5000000000E-01   1.010553E+00   0.
13    1    7    0    0    0  -7.3515971205E+00   1.6436147695E+01   8.3285150467E+01   8.5209273232E+01   1.0500000000E-01     0.000  -1.
-13    1    7    0    0    0  -2.5214496128E+00   5.7259737963E+00   2.9037151114E+01   2.9703731313E+01   1.0500000000E-01     0.000   1.
13    1    9    0    0    0   3.4785421888E-01  -1.5605344948E+00   8.1598161678E+00   8.3156416084E+00   1.0500000000E-01     0.000  -1.
-13    1    9    0    0    0   2.2991259424E-01  -7.9410560406E-01   4.5987113525E+00   4.6736104475E+00   1.0500000000E-01     0.000   1.
</event>
<event>
 13   1  9.2978750E-05  1.2500000E+02  7.5467720E-03  1.2380620E-01
   21   -1    0    0  502  501   0.0000000000E+00   0.0000000000E+00   1.8573600871E+00   1.8573600871E+00   0.0000000000E+00     0.000   1.
   21   -1    0    0  501  502   0.0000000000E+00   0.0000000000E+00  -2.1031193828E+03   2.1031193828E+03   0.0000000000E+00     0.000   1.
   25    2    1    2    0    0   0.0000000000E+00   0.0000000000E+00  -2.1012620227E+03   2.1049767429E+03   1.2500000000E+02  8.413E-09  -1.
3000002    2    3    0    0    0   4.8872039683E+01   3.7515844137E+01  -1.1047683366E+03   1.1065301588E+03   1.0000000000E+01  4.293E-11   1.
3000002    2    3    0    0    0  -4.8872039683E+01  -3.7515844137E+01  -9.9649368607E+02   9.9844658405E+02   1.0000000000E+01  6.053E-11   1.
3000001    1    4    0    0    0   3.2224090987E+01   2.5778560012E+01  -6.5363604552E+02   6.5493816975E+02   1.0000000000E+00     0.000  -1.
3000022   2   4   0   0   0   1.6647948696E+01   1.1737284125E+01   -4.5113229111E+02   4.5159198909E+02   2.5000000000E-01   6.291775E-01   0.
3000001    1    5    0    0    0  -4.6545353152E+01  -3.7627417802E+01  -9.3977272011E+02   9.4167725784E+02   1.0000000000E+00     0.000   1.
3000022   2   5   0   0   0   -2.3266865306E+00   1.1157366565E-01   -5.6720965956E+01   5.6769326206E+01   2.5000000000E-01   5.834614E+00   0.
13    1    7    0    0    0   4.5404295180E+00   3.1969864782E+00  -1.2218399355E+02   1.2231016118E+02   1.0500000000E-01     0.000  -1.
-13    1    7    0    0    0   1.2107519178E+01   8.5402976465E+00  -3.2894829756E+02   3.2928182792E+02   1.0500000000E-01     0.000   1.
13    1    9    0    0    0  -8.2342459479E-01   9.2222711983E-02  -1.9673238111E+01   1.9690958734E+01   1.0500000000E-01     0.000  -1.
-13    1    9    0    0    0  -1.5032619358E+00   1.9350953670E-02  -3.7047727845E+01   3.7078367472E+01   1.0500000000E-01     0.000   1.
</event>
<event>
 13   1  9.2978750E-05  1.2500000E+02  7.5467720E-03  1.2380620E-01
   21   -1    0    0  502  501   0.0000000000E+00   0.0000000000E+00   7.2713025393E+00   7.2713025393E+00   0.0000000000E+00     0.000   1.
   21   -1    0    0  501  502   0.0000000000E+00   0.0000000000E+00  -5.3721461580E+02   5.3721461580E+02   0.0000000000E+00     0.000   1.
   25    2    1    2    0    0   0.0000000000E+00   0.0000000000E+00  -5.2994331326E+02   5.4448591834E+02   1.2500000000E+02  3.089E-08  -1.
3000002    2    3    0    0    0   7.2993183444E+00   2.4556639400E+01  -5.0944295414E+02   5.1018470392E+02   1.0000000000E+01  1.983E-10  -1.
3000002    2    3    0    0    0  -7.2993183444E+00  -2.4556639400E+01  -2.0500359119E+01   3.4301214423E+01   1.0000000000E+01  4.701E-11  -1.
3000001    1    4    0    0    0  -1.3662303135E+00   2.0111952880E+00  -2.4520523881E+01   2.4661053975E+01   1.0000000000E+00     0.000   1.
3000022   2   4   0   0   0   8.6655486579E+00   2.2545444112E+01   -4.8492243026E+02   4.8552364994E+02   2.5000000000E-01   1.710759E+00   0.
3000001    1    5    0    0    0  -3.8154030578E+00  -2.0737644900E+01  -1.1815352490E+01   2.4191109337E+01   1.0000000000E+00     0.000  -1.
3000022   2   5   0   0   0   -3.4839152866E+00   -3.8189944999E+00   -8.6850066288E+00   1.0110105086E+01   2.5000000000E-01   6.060346E+00   0.
13    1    7    0    0    0   3.1788123059E+00   8.1813746593E+00  -1.7523666369E+02   1.7545637368E+02   1.0500000000E-01     0.000  -1.
-13    1    7    0    0    0   5.4867363520E+00   1.4364069452E+01  -3.0968576657E+02   3.1006727626E+02   1.0500000000E-01     0.000   1.
13    1    9    0    0    0  -2.0726748017E+00  -2.1928449374E+00  -4.9960916312E+00   5.8375085731E+00   1.0500000000E-01     0.000  -1.
-13    1    9    0    0    0  -1.4112404849E+00  -1.6261495625E+00  -3.6889149976E+00   4.2725965133E+00   1.0500000000E-01     0.000   1.
</event>
<event>
 13   1  9.2978750E-05  1.2500000E+02  7.5467720E-03  1.2380620E-01
   21   -1    0    0  502  501   0.0000000000E+00   0.0000000000E+00   4.6107783593E+01   4.6107783593E+01   0.0000000000E+00     0.000   1.
   21   -1    0    0  501  502   0.0000000000E+00   0.0000000000E+00  -8.4719969072E+01   8.4719969072E+01   0.0000000000E+00     0.000   1.
   25    2    1    2    0    0   0.0000000000E+00   0.0000000000E+00  -3.8612185478E+01   1.3082775267E+02   1.2500000000E+02  4.711E-08  -1.
3000002    2    3    0    0    0   2.3526697176E+01  -4.8876946591E+01  -5.0066607957E+01   7.4492460158E+01   1.0000000000E+01  4.602E-10  -1.
3000002    2    3    0    0    0  -2.3526697176E+01   4.8876946591E+01   1.1454422479E+01   5.6335292512E+01   1.0000000000E+01  1.033E-10  -1.
3000001    1    4    0    0    0   2.6209058792E-01  -6.2233908990E-01  -2.8063647787E+00   3.0547799741E+00   1.0000000000E+00     0.000   1.
3000022   2   4   0   0   0   2.3264606588E+01   -4.8254607501E+01   -4.7260243179E+01   7.1437680184E+01   2.5000000000E-01   9.006150E+00   0.
3000001    1    5    0    0    0  -5.4449793003E+00   1.4360342879E+01  -1.0099353325E+00   1.5423592855E+01   1.0000000000E+00     0.000   1.
3000022   2   5   0   0   0   -1.8081717876E+01   3.4516603712E+01   1.2464357812E+01   4.0911699656E+01   2.5000000000E-01   2.617081E-01   0.
13    1    7    0    0    0   8.7843926383E+00  -1.8093234687E+01  -1.7776291326E+01   2.6842843623E+01   1.0500000000E-01     0.000   1.
-13    1    7    0    0    0   1.4480213950E+01  -3.0161372814E+01  -2.9483951853E+01   4.4594836561E+01   1.0500000000E-01     0.000  -1.
13    1    9    0    0    0  -7.5423736726E+00   1.4534164272E+01   5.2230998321E+00   1.7187819191E+01   1.0500000000E-01     0.000   1.
-13    1    9    0    0    0  -1.0539344203E+01   1.9982439440E+01   7.2412579798E+00   2.3723880465E+01   1.0500000000E-01     0.000  -1.
</event>
<event>
 13   1  9.2978750E-05  1.2500000E+02  7.5467720E-03  1.2380620E-01
   21   -1    0    0  502  501   0.0000000000E+00   0.0000000000E+00   5.6848355068E+01   5.6848355068E+01   0.0000000000E+00     0.000  -1.
   21   -1    0    0  501  502   0.0000000000E+00   0.0000000000E+00  -6.8713509746E+01   6.8713509746E+01   0.0000000000E+00     0.000  -1.
   25    2    1    2    0    0   0.0000000000E+00   0.0000000000E+00  -1.1865154678E+01   1.2556186481E+02   1.2500000000E+02  3.888E-08  -1.
3000002    2    3    0    0    0  -4.6195573875E+01   2.4083038205E+00   3.5072709284E+01   5.8906077017E+01   1.0000000000E+01  2.957E-10   1.
3000002    2    3    0    0    0   4.6195573875E+01  -2.4083038205E+00  -4.6937863962E+01   6.6655787793E+01   1.0000000000E+01  3.622E-10   1.
3000001    1    4    0    0    0  -9.5032277643E+00   3.1994998463E+00   1.1480071468E+01   1.5275476363E+01   1.0000000000E+00     0.000  -1.
3000022   2   4   0   0   0   -3.6692346111E+01   -7.9119602585E-01   2.3592637817E+01   4.3630600654E+01   2.5000000000E-01   1.013982E+01   0.
3000001    1    5    0    0    0   1.0197886565E+01  -4.1909025474E+00  -1.3827417125E+01   1.7713215939E+01   1.0000000000E+00     0.000   1.
3000022   2   5   0   0   0   3.5997687310E+01   1.7825987269E+00   -3.3110446837E+01   4.8942571854E+01   2.5000000000E-01   6.458964E-01   0.
13    1    7    0    0    0  -2.2817315738E+01  -4.9999129370E-01   1.4742583970E+01   2.7170474709E+01   1.0500000000E-01     0.000  -1.
-13    1    7    0    0    0  -1.3875030373E+01  -2.9120473215E-01   8.8500538464E+00   1.6460125945E+01   1.0500000000E-01     0.000   1.
13    1    9    0    0    0   2.2968105536E+01   1.0790921552E+00  -2.1129376853E+01   3.1227550384E+01   1.0500000000E-01     0.000  -1.
-13    1    9    0    0    0   1.3029581774E+01   7.0350657164E-01  -1.1981069985E+01   1.7715021470E+01   1.0500000000E-01     0.000   1.
</event>
<event>
 13   1  9.2978750E-05  1.2500000E+02  7.5467720E-03  1.2380620E-01
   21   -1    0    0  502  501   0.0000000000E+00   0.0000000000E+00   7.6067595269E+01   7.6067595269E+01   0.0000000000E+00     0.000  -1.
   21   -1    0    0  501  502   0.0000000000E+00   0.0000000000E+00  -5.1352352946E+01   5.1352352946E+01   0.0000000000E+00     0.000  -1.
   25    2    1    2    0    0   0.0000000000E+00   0.0000000000E+00   2.4715242322E+01   1.2741994821E+02   1.2500000000E+02  5.126E-08  -1.
3000002    2    3    0    0    0   5.3882543188E+01  -2.7822119428E+01   7.8660070106E-01   6.1465580047E+01   1.0000000000E+01  3.609E-12  -1.
3000002    2    3    0    0    0  -5.3882543188E+01   2.7822119428E+01   2.3928641621E+01   6.5954368163E+01   1.0000000000E+01  8.104E-10  -1.
3000001    1    4    0    0    0   1.5980515469E+01  -3.4429969270E+00  -4.2043875235E-01   1.6383158158E+01   1.0000000000E+00     0.000   1.
3000022   2   4   0   0   0   3.7902027719E+01   -2.4379122501E+01   1.2070394534E+00   4.5082421889E+01   2.5000000000E-01   4.908743E+00   0.
3000001    1    5    0    0    0  -5.3981664624E+01   2.7349999185E+01   2.4379056468E+01   6.5248608914E+01   1.0000000000E+00     0.000  -1.
3000022   2   5   0   0   0   9.9121435038E-02   4.7212024271E-01   -4.5041484711E-01   7.0575924858E-01   2.5000000000E-01   3.040702E+00   0.
13    1    7    0    0    0   9.8805348442E+00  -6.3221967162E+00   3.2947783331E-01   1.1735191552E+01   1.0500000000E-01     0.000   1.
-13    1    7    0    0    0   2.8021492875E+01  -1.8056925784E+01   8.7756162010E-01   3.3347230337E+01   1.0500000000E-01     0.000  -1.
13    1    9    0    0    0   1.0009409252E-01   3.1094210241E-01  -3.4425334299E-01   4.8604442448E-01   1.0500000000E-01     0.000  -1.
-13    1    9    0    0    0  -9.7265748136E-04   1.6117814030E-01  -1.0616150413E-01   2.1971482411E-01   1.0500000000E-01     0.000   1.
</event>
<event>
 13   1  9.2978750E-05  1.2500000E+02  7.5467720E-03  1.2380620E-01
   21   -1    0    0  502  501   0.0000000000E+00   0.0000000000E+00   2.2939382029E+01   2.2939382029E+01   0.0000000000E+00     0.000   1.
   21   -1    0    0  501  502   0.0000000000E+00   0.0000000000E+00  -1.7028575552E+02   1.7028575552E+02   0.0000000000E+00     0.000   1.
   25    2    1    2    0    0   0.0000000000E+00   0.0000000000E+00  -1.4734637349E+02   1.9322513755E+02   1.2500000000E+02  7.217E-08  -1.
3000002    2    3    0    0    0  -3.7441989901E+01   4.8454812007E+01  -6.2056145831E+01   8.7753841225E+01   1.0000000000E+01  8.359E-11   1.
3000002    2    3    0    0    0   3.7441989901E+01  -4.8454812007E+01  -8.5290227659E+01   1.0547129632E+02   1.0000000000E+01  3.660E-10   1.
3000001    1    4    0    0    0  -3.3536269805E+01   4.2445302047E+01  -5.8715701732E+01   7.9842461687E+01   1.0000000000E+00     0.000   1.
3000022   2   4   0   0   0   -3.9057200954E+00   6.0095099597E+00   -3.3404440991E+00   7.9113795383E+00   2.5000000000E-01   9.241166E-01   0.
3000001    1    5    0    0    0   1.7404216148E+01  -1.5708292249E+01  -2.8426645039E+01   3.6860973038E+01   1.0000000000E+00     0.000   1.
3000022   2   5   0   0   0   2.0037773753E+01   -3.2746519758E+01   -5.6863582620E+01   6.8610323287E+01   2.5000000000E-01   7.819481E-02   0.
13    1    7    0    0    0  -1.9854431614E+00   2.9313183790E+00  -1.6585905306E+00   3.9110816323E+00   1.0500000000E-01     0.000  -1.
-13    1    7    0    0    0  -1.9202769340E+00   3.0781915807E+00  -1.6818535686E+00   4.0002979060E+00   1.0500000000E-01     0.000   1.
13    1    9    0    0    0   1.3425416732E+01  -2.2001710062E+01  -3.8250544300E+01   4.6124095919E+01   1.0500000000E-01     0.000  -1.
-13    1    9    0    0    0   6.6123570207E+00  -1.0744809696E+01  -1.8613038319E+01   2.2486227368E+01   1.0500000000E-01     0.000   1.
</event>
<event>
 13   1  9.2978750E-05  1.2500000E+02  7.5467720E-03  1.2380620E-01
   21   -1    0    0  502  501   0.0000000000E+00   0.0000000000E+00   6.4984581701E+01   6.4984581701E+01   0.0000000000E+00     0.000  -1.
   21   -1    0    0  501  502   0.0000000000E+00   0.0000000000E+00  -6.0110412312E+01   6.0110412312E+01   0.0000000000E+00     0.000  -1.
   25    2    1    2    0    0   0.0000000000E+00   0.0000000000E+00   4.8741693892E+00   1.2509499401E+02   1.2500000000E+02  1.183E-08  -1.
3000002    2    3    0    0    0   3.0901683117E+00   6.1590361222E+01   6.1134518740E-01   6.2476359357E+01   1.0000000000E+01  5.014E-10  -1.
3000002    2    3    0    0    0  -3.0901683117E+00  -6.1590361222E+01   4.2628242018E+00   6.2618634653E+01   1.0000000000E+01  1.087E-09  -1.
3000001    1    4    0    0    0   2.4405222507E+00   4.9899636995E+01   4.4119292002E+00   5.0163682484E+01   1.0000000000E+00     0.000  -1.
3000022   2   4   0   0   0   6.4964606102E-01   1.1690724227E+01   -3.8005840128E+00   1.2312676873E+01   2.5000000000E-01   9.869216E+00   0.
3000001    1    5    0    0    0  -3.6239066575E+00  -6.0152410312E+01   2.5756088532E+00   6.0324778713E+01   1.0000000000E+00     0.000  -1.
3000022   2   5   0   0   0   5.3373834582E-01   -1.4379509098E+00   1.6872153486E+00   2.2938559400E+00   2.5000000000E-01   1.412738E+01   0.
13    1    7    0    0    0   4.5075173843E-01   7.9561460961E+00  -2.5338946153E+00   8.3627199376E+00   1.0500000000E-01     0.000  -1.
-13    1    7    0    0    0   1.9889432259E-01   3.7345781306E+00  -1.2666893975E+00   3.9499569359E+00   1.0500000000E-01     0.000   1.
13    1    9    0    0    0   4.0276564783E-01  -9.6912436742E-01   1.1008950373E+00   1.5246039124E+00   1.0500000000E-01     0.000  -1.
-13    1    9    0    0    0   1.3097269800E-01  -4.6882654242E-01   5.8632031133E-01   7.6925202761E-01   1.0500000000E-01     0.000   1.
</event>
<event>
 13   1  9.2978750E-05  1.2500000E+02  7.5467720E-03  1.2380620E-01
   21   -1    0    0  502  501   0.0000000000E+00   0.0000000000E+00   8.1059179204E+02   8.1059179204E+02   0.0000000000E+00     0.000   1.
   21   -1    0    0  501  502   0.0000000000E+00   0.0000000000E+00  -4.8190100595E+00   4.8190100595E+00   0.0000000000E+00     0.000   1.
   25    2    1    2    0    0   0.0000000000E+00   0.0000000000E+00   8.0577278198E+02   8.1541080210E+02   1.2500000000E+02  3.574E-08  -1.
3000002    2    3    0    0    0  -1.4535605225E+01   5.2955147903E+01   2.1945342218E+02   2.2644057943E+02   1.0000000000E+01  4.464E-10   1.
3000002    2    3    0    0    0   1.4535605225E+01  -5.2955147903E+01   5.8631935980E+02   5.8897022267E+02   1.0000000000E+01  1.472E-10   1.
3000001    1    4    0    0    0  -1.1319755161E+01   3.6366694032E+01   1.6864943033E+02   1.7289969243E+02   1.0000000000E+00     0.000   1.
3000022   2   4   0   0   0   -3.2158500632E+00   1.6588453871E+01   5.0803991845E+01   5.3540887001E+01   2.5000000000E-01   5.716903E+00   0.
3000001    1    5    0    0    0   1.5470040369E+01  -4.1278511515E+01   4.6693248415E+02   4.6900978926E+02   1.0000000000E+00     0.000   1.
3000022   2   5   0   0   0   -9.3443514467E-01   -1.1676636388E+01   1.1938687565E+02   1.1996043341E+02   2.5000000000E-01   5.278394E-01   0.
13    1    7    0    0    0  -1.8718093501E+00   9.9106152900E+00   3.0451865284E+01   3.2078826193E+01   1.0500000000E-01     0.000  -1.
-13    1    7    0    0    0  -1.3440407132E+00   6.6778385813E+00   2.0352126561E+01   2.1462060808E+01   1.0500000000E-01     0.000   1.
13    1    9    0    0    0  -4.6759641290E-01  -6.5815766905E+00   6.7544948657E+01   6.7866537500E+01   1.0500000000E-01     0.000   1.
-13    1    9    0    0    0  -4.6683873177E-01  -5.0950596977E+00   5.1841926994E+01   5.2093895911E+01   1.0500000000E-01     0.000  -1.
</event>
<event>
 13   1  9.2978750E-05  1.2500000E+02  7.5467720E-03  1.2380620E-01
   21   -1    0    0  502  501   0.0000000000E+00   0.0000000000E+00   5.7936538438E+02   5.7936538438E+02   0.0000000000E+00     0.000   1.
   21   -1    0    0  501  502   0.0000000000E+00   0.0000000000E+00  -6.7422909710E+00   6.7422909710E+00   0.0000000000E+00     0.000   1.
   25    2    1    2    0    0   0.0000000000E+00   0.0000000000E+00   5.7262309341E+02   5.8610767535E+02   1.2500000000E+02  3.842E-08  -1.
3000002    2    3    0    0    0   8.6421505280E+00   6.1072405572E+01   2.9246899003E+02   2.9906961667E+02   1.0000000000E+01  9.167E-11  -1.
3000002    2    3    0    0    0  -8.6421505280E+00  -6.1072405572E+01   2.8015410338E+02   2.8703805868E+02   1.0000000000E+01  3.507E-10  -1.
3000001    1    4    0    0    0   5.6142712824E+00   1.4107598479E+01   6.1497245898E+01   6.3351839989E+01   1.0000000000E+00     0.000   1.
3000022   2   4   0   0   0   3.0278792456E+00   4.6964807092E+01   2.3097174413E+02   2.3571777669E+02   2.5000000000E-01   7.517964E-01   0.
3000001    1    5    0    0    0  -1.0505869758E+01  -4.7301114829E+01   2.0991091829E+02   2.1543296493E+02   1.0000000000E+00     0.000  -1.
3000022   2   5   0   0   0   1.8637192301E+00   -1.3771290743E+01   7.0243185092E+01   7.1605093743E+01   2.5000000000E-01   6.835646E+00   0.
13    1    7    0    0    0   1.9003175355E+00   2.8572695388E+01   1.4042643618E+02   1.4331645102E+02   1.0500000000E-01     0.000   1.
-13    1    7    0    0    0   1.1275617101E+00   1.8392111705E+01   9.0545307953E+01   9.2401325670E+01   1.0500000000E-01     0.000  -1.
13    1    9    0    0    0   6.5661866332E-01  -4.6983528085E+00   2.3719667901E+01   2.4189653522E+01   1.0500000000E-01     0.000   1.
-13    1    9    0    0    0   1.2071005668E+00  -9.0729379341E+00   4.6523517191E+01   4.7415440221E+01   1.0500000000E-01     0.000  -1.
</event>
<event>
 13   1  9.2978750E-05  1.2500000E+02  7.5467720E-03  1.2380620E-01
   21   -1    0    0  502  501   0.0000000000E+00   0.0000000000E+00   1.1214145952E+02   1.1214145952E+02   0.0000000000E+00     0.000  -1.
   21   -1    0    0  501  502   0.0000000000E+00   0.0000000000E+00  -3.4833236669E+01   3.4833236669E+01   0.0000000000E+00     0.000  -1.
   25    2    1    2    0    0   0.0000000000E+00   0.0000000000E+00   7.7308222856E+01   1.4697469619E+02   1.2500000000E+02  3.409E-08  -1.
3000002    2    3    0    0    0   4.8161547072E+01   1.7138836191E+01  -1.9573251884E+00   5.2125861568E+01   1.0000000000E+01  2.984E-10  -1.
3000002    2    3    0    0    0  -4.8161547072E+01  -1.7138836191E+01   7.9265548044E+01   9.4848834622E+01   1.0000000000E+01  6.944E-11  -1.
3000001    1    4    0    0    0   2.0895624281E+01   5.4281725178E+00   3.6696117811E+00   2.1921638205E+01   1.0000000000E+00     0.000  -1.
3000022   2   4   0   0   0   2.7265922791E+01   1.1710663673E+01   -5.6269369695E+00   3.0204223363E+01   2.5000000000E-01   5.529906E+00   0.
3000001    1    5    0    0    0  -5.9035020399E-02  -5.2827763997E-02   2.0895449612E+00   2.3178597997E+00   1.0000000000E+00     0.000   1.
3000022   2   5   0   0   0   -4.8102512051E+01   -1.7086008427E+01   7.7176003083E+01   9.2530974822E+01   2.5000000000E-01   2.202048E+00   0.
13    1    7    0    0    0   1.2274405404E+01   5.2001583741E+00  -2.5380100740E+00   1.3570379334E+01   1.0500000000E-01     0.000  -1.
-13    1    7    0    0    0   1.4991517387E+01   6.5105052992E+00  -3.0889268955E+00   1.6633844029E+01   1.0500000000E-01     0.000   1.
13    1    9    0    0    0  -1.7096522408E+01  -6.0924511885E+00   2.7538482912E+01   3.2981632859E+01   1.0500000000E-01     0.000   1.
-13    1    9    0    0    0  -3.1005989644E+01  -1.0993557239E+01   4.9637520171E+01   5.9549341964E+01   1.0500000000E-01     0.000  -1.
</event>
<event>
 13   1  9.2978750E-05  1.2500000E+02  7.5467720E-03  1.2380620E-01
   21   -1    0    0  502  501   0.0000000000E+00   0.0000000000E+00   2.9992247218E+01   2.9992247218E+01   0.0000000000E+00     0.000  -1.
   21   -1    0    0  501  502   0.0000000000E+00   0.0000000000E+00  -1.3024199126E+02   1.3024199126E+02   0.0000000000E+00     0.000  -1.
   25    2    1    2    0    0   0.0000000000E+00   0.0000000000E+00  -1.0024974404E+02   1.6023423848E+02   1.2500000000E+02  1.160E-08  -1.
3000002    2    3    0    0    0   2.7394945430E+00  -4.1606534096E+01  -1.0841337840E+02   1.1658502960E+02   1.0000000000E+01  1.817E-10   1.
3000002    2    3    0    0    0  -2.7394945430E+00   4.1606534096E+01   8.1636343643E+00   4.3649208880E+01   1.0000000000E+01  9.948E-10   1.
3000001    1    4    0    0    0   2.0424750971E+00  -8.4344759967E+00  -3.4091297590E+01   3.5192735916E+01   1.0000000000E+00     0.000   1.
3000022   2   4   0   0   0   6.9701944590E-01   -3.3172058099E+01   -7.4322080814E+01   8.1392293684E+01   2.5000000000E-01   7.413240E-02   0.
3000001    1    5    0    0    0  -5.3670652920E+00   2.6572801510E+01   2.0448850962E+00   2.7204792317E+01   1.0000000000E+00     0.000   1.
3000022   2   5   0   0   0   2.6275707490E+00   1.5033732586E+01   6.1187492680E+00   1.6444416563E+01   2.5000000000E-01   1.376447E+01   0.
13    1    7    0    0    0   5.2110726965E-01  -2.5036408423E+01  -5.6148755327E+01   6.1479972749E+01   1.0500000000E-01     0.000  -1.
-13    1    7    0    0    0   1.7591217625E-01  -8.1356496761E+00  -1.8173325488E+01   1.9912320935E+01   1.0500000000E-01     0.000   1.
13    1    9    0    0    0   1.9575901472E+00   1.1045203913E+01   4.5193757552E+00   1.2093984905E+01   1.0500000000E-01     0.000  -1.
-13    1    9    0    0    0   6.6998060179E-01   3.9885286732E+00   1.5993735128E+00   4.3504316587E+00   1.0500000000E-01     0.000   1.
</event>
<event>
 13   1  9.2978750E-05  1.2500000E+02  7.5467720E-03  1.2380620E-01
   21   -1    0    0  502  501   0.0000000000E+00   0.0000000000E+00   6.0315257696E+01   6.0315257696E+01   0.0000000000E+00     0.000   1.
   21   -1    0    0  501  502   0.0000000000E+00   0.0000000000E+00  -6.4763878150E+01   6.4763878150E+01   0.0000000000E+00     0.000   1.
   25    2    1    2    0    0   0.0000000000E+00   0.0000000000E+00  -4.4486204539E+00   1.2507913585E+02   1.2500000000E+02  6.848E-08  -1.
3000002    2    3    0    0    0   5.3105760015E+01   1.9913131788E+01  -2.6519208367E+01   6.3403651132E+01   1.0000000000E+01  4.990E-10   1.
3000002    2    3    0    0    0  -5.3105760015E+01  -1.9913131788E+01   2.2070587913E+01   6.1675484718E+01   1.0000000000E+01  7.406E-10   1.
3000001    1    4    0    0    0   5.4708501876E+00   6.1538219583E-01  -5.7821488035E-02   5.5957341204E+00   1.0000000000E+00     0.000  -1.
3000022   2   4   0   0   0   4.7634909828E+01   1.9297749593E+01   -2.6461386879E+01   5.7807917011E+01   2.5000000000E-01   3.259001E+00   0.
3000001    1    5    0    0    0  -5.2006222883E+01  -1.8526793869E+01   2.2808532865E+01   5.9742099737E+01   1.0000000000E+00     0.000   1.
3000022   2   5   0   0   0   -1.0995371326E+00   -1.3863379199E+00   -7.3794495162E-01   1.9333849812E+00   2.5000000000E-01   1.631902E+01   0.
13    1    7    0    0    0   2.4134924882E+01   9.8499529912E+00  -1.3410631883E+01   2.9315051518E+01   1.0500000000E-01     0.000   1.
-13    1    7    0    0    0   2.3499984946E+01   9.4477966013E+00  -1.3050754996E+01   2.8492865493E+01   1.0500000000E-01     0.000  -1.
13    1    9    0    0    0  -3.6555618780E-01  -3.8686693853E-01  -2.2936825184E-01   5.8900946471E-01   1.0500000000E-01     0.000   1.
-13    1    9    0    0    0  -7.3398094484E-01  -9.9947098133E-01  -5.0857669978E-01   1.3443755165E+00   1.0500000000E-01     0.000  -1.
</event>
<event>
 13   1  9.2978750E-05  1.2500000E+02  7.5467720E-03  1.2380620E-01
   21   -1    0    0  502  501   0.0000000000E+00   0.0000000000E+00   9.2404292010E+00   9.2404292010E+00   0.0000000000E+00     0.000  -1.
   21   -1    0    0  501  502   0.0000000000E+00   0.0000000000E+00  -4.2273469284E+02   4.2273469284E+02   0.0000000000E+00     0.000  -1.
   25    2    1    2    0    0   0.0000000000E+00   0.0000000000E+00  -4.1349426364E+02   4.3197512204E+02   1.2500000000E+02  7.552E-09  -1.
3000002    2    3    0    0    0   3.6583562115E+01   4.6802851815E+00  -3.7766043839E+02   3.7958881545E+02   1.0000000000E+01  4.237E-10   1.
3000002    2    3    0    0    0  -3.6583562115E+01  -4.6802851815E+00  -3.5833825245E+01   5.2386306590E+01   1.0000000000E+01  5.076E-10   1.
3000001    1    4    0    0    0   1.5646303211E+01   8.4105173015E-01  -2.0926122717E+02   2.0984941117E+02   1.0000000000E+00     0.000   1.
3000022   2   4   0   0   0   2.0937258904E+01   3.8392334513E+00   -1.6839921122E+02   1.6973940428E+02   2.5000000000E-01   5.550109E+00   0.
3000001    1    5    0    0    0  -3.2659982954E+01  -2.0032502147E+00  -3.4236027206E+01   4.7368692792E+01   1.0000000000E+00     0.000   1.
3000022   2   5   0   0   0   -3.9235791609E+00   -2.6770349668E+00   -1.5977980387E+00   5.0176137972E+00   2.5000000000E-01   9.849615E-02   0.
13    1    7    0    0    0   1.2139909789E+01   2.1775000697E+00  -9.7220969755E+01   9.8000239292E+01   1.0500000000E-01     0.000  -1.
-13    1    7    0    0    0   8.7973491153E+00   1.6617333817E+00  -7.1178241470E+01   7.1739164987E+01   1.0500000000E-01     0.000   1.
13    1    9    0    0    0  -1.6014400925E+00  -1.1420418000E+00  -6.0941782962E-01   2.0618644315E+00   1.0500000000E-01     0.000   1.
-13    1    9    0    0    0  -2.3221390684E+00  -1.5349931668E+00  -9.8838020910E-01   2.9557493657E+00   1.0500000000E-01     0.000  -1.
</event>
<event>
 13   1  9.2978750E-05  1.2500000E+02  7.5467720E-03  1.2380620E-01
   21   -1    0    0  502  501   0.0000000000E+00   0.0000000000E+00   3.5256139306E+02   3.5256139306E+02   0.0000000000E+00     0.000   1.
   21   -1    0    0  501  502   0.0000000000E+00   0.0000000000E+00  -1.1079630603E+01   1.1079630603E+01   0.0000000000E+00     0.000   1.
   25    2    1    2    0    0   0.0000000000E+00   0.0000000000E+00   3.4148176246E+02   3.6364102367E+02   1.2500000000E+02  7.684E-08  -1.
3000002    2    3    0    0    0  -2.3364227318E+01   5.3474911580E+01   1.1250040269E+02   1.2712904425E+02   1.0000000000E+01  3.306E-11   1.
3000002    2    3    0    0    0   2.3364227318E+01  -5.3474911580E+01   2.2898135977E+02   2.3651197942E+02   1.0000000000E+01  7.948E-10   1.
3000001    1    4    0    0    0  -1.5774653601E+01   4.0349641253E+01   7.4074123725E+01   8.5819048300E+01   1.0000000000E+00     0.000  -1.
3000022   2   4   0   0   0   -7.5895737170E+00   1.3125270327E+01   3.8426278962E+01   4.1309995948E+01   2.5000000000E-01   1.099831E+00   0.
3000001    1    5    0    0    0   3.5618509581E+00  -1.2833915960E+01   6.8190962259E+01   6.9486714665E+01   1.0000000000E+00     0.000  -1.
3000022   2   5   0   0   0   1.9802376360E+01   -4.0640995620E+01   1.6079039751E+02   1.6702526476E+02   2.5000000000E-01   5.049096E+00   0.
13    1    7    0    0    0  -1.8157607034E+00   3.1134942985E+00   9.1072099553E+00   9.7950565005E+00   1.0500000000E-01     0.000   1.
-13    1    7    0    0    0  -5.7738130136E+00   1.0011776029E+01   2.9319069007E+01   3.1514939448E+01   1.0500000000E-01     0.000  -1.
13    1    9    0    0    0   9.3163706179E+00  -1.9265830926E+01   7.6030416771E+01   7.8984823239E+01   1.0500000000E-01     0.000  -1.
-13    1    9    0    0    0   1.0486005742E+01  -2.1375164694E+01   8.4759980742E+01   8.8040441517E+01   1.0500000000E-01     0.000   1.
</event>
<event>
 13   1  9.2978750E-05  1.2500000E+02  7.5467720E-03  1.2380620E-01
   21   -1    0    0  502  501   0.0000000000E+00   0.0000000000E+00   4.6505826994E+00   4.6505826994E+00   0.0000000000E+00     0.000   1.
   21   -1    0    0  501  502   0.0000000000E+00   0.0000000000E+00  -8.3994850806E+02   8.3994850806E+02   0.0000000000E+00     0.000   1.
   25    2    1    2    0    0   0.0000000000E+00   0.0000000000E+00  -8.3529792536E+02   8.4459909076E+02   1.2500000000E+02  2.502E-08  -1.
3000002    2    3    0    0    0  -6.0121862743E+00   3.8318830048E+01  -9.3479842510E+01   1.0170034452E+02   1.0000000000E+01  2.221E-10   1.
3000002    2    3    0    0    0   6.0121862743E+00  -3.8318830048E+01  -7.4181808285E+02   7.4289874624E+02   1.0000000000E+01  1.033E-09   1.
3000001    1    4    0    0    0  -4.0567784975E+00   4.4885303552E+00  -1.5936766591E+01   1.7075856813E+01   1.0000000000E+00     0.000  -1.
3000022   2   4   0   0   0   -1.9554077768E+00   3.3830299693E+01   -7.7543075919E+01   8.4624487708E+01   2.5000000000E-01   2.755981E+00   0.
3000001    1    5    0    0    0   1.7741107842E+00  -8.3957573255E-01  -5.7188213543E+01   5.7230622264E+01   1.0000000000E+00     0.000  -1.
3000022   2   5   0   0   0   4.2380754901E+00   -3.7479254315E+01   -6.8462986931E+02   6.8566812397E+02   2.5000000000E-01   1.429950E+00   0.
13    1    7    0    0    0  -6.5833222481E-01   1.1006667214E+01  -2.5349538519E+01   2.7643991256E+01   1.0500000000E-01     0.000  -1.
-13    1    7    0    0    0  -1.2970755520E+00   2.2823632479E+01  -5.2193537401E+01   5.6980496452E+01   1.0500000000E-01     0.000   1.
13    1    9    0    0    0   1.8030722700E+00  -1.5566840396E+01  -2.8532793588E+02   2.8575797383E+02   1.0500000000E-01     0.000  -1.
-13    1    9    0    0    0   2.4350032201E+00  -2.1912413919E+01  -3.9930193343E+02   3.9991015014E+02   1.0500000000E-01     0.000   1.
</event>
<event>
 13   1  9.2978750E-05  1.2500000E+02  7.5467720E-03  1.2380620E-01
   21   -1    0    0  502  501   0.0000000000E+00   0.0000000000E+00   9.4447451562E+01   9.4447451562E+01   0.0000000000E+00     0.000   1.
   21   -1    0    0  501  502   0.0000000000E+00   0.0000000000E+00  -4.1358977245E+01   4.1358977245E+01   0.0000000000E+00     0.000   1.
   25    2    1    2    0    0   0.0000000000E+00   0.0000000000E+00   5.3088474317E+01   1.3580642881E+02   1.2500000000E+02  1.556E-07  -1.
3000002    2    3    0    0    0  -1.5793674517E+01   4.5345493742E+01  -1.5542205089E+01   5.1451084503E+01   1.0000000000E+01  4.694E-10   1.
3000002    2    3    0    0    0   1.5793674517E+01  -4.5345493742E+01   6.8630679406E+01   8.4355344307E+01   1.0000000000E+01  8.069E-11   1.
3000001    1    4    0    0    0  -1.4677813415E+01   3.8111798918E+01  -1.6512221818E+01   4.4063600543E+01   1.0000000000E+00     0.000   1.
3000022   2   4   0   0   0   -1.1158611017E+00   7.2336948239E+00   9.7001672852E-01   7.3874839599E+00   2.5000000000E-01   2.567523E+00   0.
3000001    1    5    0    0    0   7.0333775326E+00  -2.4466604061E+01   2.8113601985E+01   3.7940186220E+01   1.0000000000E+00     0.000   1.
3000022   2   5   0   0   0   8.7602969842E+00   -2.0878889681E+01   4.0517077421E+01   4.6415158088E+01   2.5000000000E-01   4.323461E+00   0.
13    1    7    0    0    0  -7.5124624754E-01   4.7001867016E+00   6.8126898858E-01   4.8094987670E+00   1.0500000000E-01     0.000  -1.
-13    1    7    0    0    0  -3.6461485418E-01   2.5335081223E+00   2.8874773994E-01   2.5779851929E+00   1.0500000000E-01     0.000   1.
13    1    9    0    0    0   5.2946361172E+00  -1.2757213712E+01   2.4651360534E+01   2.8257393271E+01   1.0500000000E-01     0.000  -1.
-13    1    9    0    0    0   3.4656608670E+00  -8.1216759687E+00   1.5865716887E+01   1.8157764816E+01   1.0500000000E-01     0.000   1.
</event>
<event>
 13   1  9.2978750E-05  1.2500000E+02  7.5467720E-03  1.2380620E-01
   21   -1    0    0  502  501   0.0000000000E+00   0.0000000000E+00   8.8099310833E+01   8.8099310833E+01   0.0000000000E+00     0.000   1.
   21   -1    0    0  501  502   0.0000000000E+00   0.0000000000E+00  -4.4339166369E+01   4.4339166369E+01   0.0000000000E+00     0.000   1.
   25    2    1    2    0    0   0.0000000000E+00   0.0000000000E+00   4.3760144464E+01   1.3243847720E+02   1.2500000000E+02  4.749E-09  -1.
3000002    2    3    0    0    0  -1.7988761149E+01   5.7334456323E+01   7.0691309972E+00   6.1325427211E+01   1.0000000000E+01  4.125E-10  -1.
3000002    2    3    0    0    0   1.7988761149E+01  -5.7334456323E+01   3.6691013467E+01   7.1113049989E+01   1.0000000000E+01  4.366E-10  -1.
3000001    1    4    0    0    0  -8.0486552736E+00   3.4334252869E+01  -3.9131181373E-02   3.5279219138E+01   1.0000000000E+00     0.000  -1.
3000022   2   4   0   0   0   -9.9401058751E+00   2.3000203455E+01   7.1082621786E+00   2.6046208073E+01   2.5000000000E-01   4.082315E+00   0.
3000001    1    5    0    0    0   9.3697917606E-01  -1.7866603889E+01   1.1111894553E+01   2.1084773298E+01   1.0000000000E+00     0.000   1.
3000022   2   5   0   0   0   1.7051781973E+01   -3.9467852435E+01   2.5579118914E+01   5.0028276691E+01   2.5000000000E-01   3.369567E-02   0.
13    1    7    0    0    0  -7.3513499780E+00   1.6967395809E+01   5.2746139810E+00   1.9229338124E+01   1.0500000000E-01     0.000   1.
-13    1    7    0    0    0  -2.5887558971E+00   6.0328076457E+00   1.8336481977E+00   6.8168699487E+00   1.0500000000E-01     0.000  -1.
13    1    9    0    0    0   7.3196876977E+00  -1.6777585311E+01   1.0890726108E+01   2.1299862371E+01   1.0500000000E-01     0.000   1.
-13    1    9    0    0    0   9.7320942749E+00  -2.2690267124E+01   1.4688392806E+01   2.8728414320E+01   1.0500000000E-01     0.000  -1.
</event>
<event>
 13   1  9.2978750E-05  1.2500000E+02  7.5467720E-03  1.2380620E-01
   21   -1    0    0  502  501   0.0000000000E+00   0.0000000000E+00   1.4599715965E+01   1.4599715965E+01   0.0000000000E+00     0.000  -1.
   21   -1    0    0  501  502   0.0000000000E+00   0.0000000000E+00  -2.6755657504E+02   2.6755657504E+02   0.0000000000E+00     0.000  -1.
   25    2    1    2    0    0   0.0000000000E+00   0.0000000000E+00  -2.5295685907E+02   2.8215629100E+02   1.2500000000E+02  6.586E-09  -1.
3000002    2    3    0    0    0   4.4093798176E+01  -4.2936036542E+01  -1.1677389933E+02   1.3237790539E+02   1.0000000000E+01  4.411E-10  -1.
3000002    2    3    0    0    0  -4.4093798176E+01   4.2936036542E+01  -1.3618295974E+02   1.4977838561E+02   1.0000000000E+01  4.406E-10  -1.
3000001    1    4    0    0    0   3.4135250639E+01  -2.7603702311E+01  -8.6597798367E+01   9.7094584810E+01   1.0000000000E+00     0.000  -1.
3000022   2   4   0   0   0   9.9585475370E+00   -1.5332334231E+01   -3.0176100963E+01   3.5283320583E+01   2.5000000000E-01   4.622784E-01   0.
3000001    1    5    0    0    0  -3.4833029311E+00   9.5554439951E-01  -1.1431501656E+01   1.2030199272E+01   1.0000000000E+00     0.000  -1.
3000022   2   5   0   0   0   -4.0610495245E+01   4.1980492143E+01   -1.2475145808E+02   1.3774818634E+02   2.5000000000E-01   3.818702E+00   0.
13    1    7    0    0    0   3.5847176383E+00  -5.4214131119E+00  -1.0686339457E+01   1.2508029287E+01   1.0500000000E-01     0.000   1.
-13    1    7    0    0    0   6.3738298987E+00  -9.9109211195E+00  -1.9489761506E+01   2.2775291295E+01   1.0500000000E-01     0.000  -1.
13    1    9    0    0    0  -2.7136971570E+01   2.8039059544E+01  -8.3217560796E+01   9.1911792149E+01   1.0500000000E-01     0.000  -1.
-13    1    9    0    0    0  -1.3473523674E+01   1.3941432598E+01  -4.1533897288E+01   4.5836394186E+01   1.0500000000E-01     0.000   1.
</event>
<event>
 13   1  9.2978750E-05  1.2500000E+02  7.5467720E-03  1.2380620E-01
   21   -1    0    0  502  501   0.0000000000E+00   0.0000000000E+00   1.3281834402E+02   1.3281834402E+02   0.0000000000E+00     0.000   1.
   21   -1    0    0  501  502   0.0000000000E+00   0.0000000000E+00  -2.9410470585E+01   2.9410470585E+01   0.0000000000E+00     0.000   1.
   25    2    1    2    0    0   0.0000000000E+00   0.0000000000E+00   1.0340787344E+02   1.6222881461E+02   1.2500000000E+02  3.027E-07  -1.
3000002    2    3    0    0    0   3.7465157025E+01   3.3042115189E+01   9.8692403332E+01   1.1106579060E+02   1.0000000000E+01  1.843E-09  -1.
3000002    2    3    0    0    0  -3.7465157025E+01  -3.3042115189E+01   4.7154701085E+00   5.1163024006E+01   1.0000000000E+01  2.660E-10  -1.
3000001    1    4    0    0    0   2.2455099456E+01   1.3540262374E+01   4.7552994746E+01   5.4312590677E+01   1.0000000000E+00     0.000   1.
3000022   2   4   0   0   0   1.5010057570E+01   1.9501852816E+01   5.1139408586E+01   5.6753199927E+01   2.5000000000E-01   5.064219E+00   0.
3000001    1    5    0    0    0  -2.2462024501E+01  -2.4936333291E+01   4.3332385761E-01   3.3579026673E+01   1.0000000000E+00     0.000  -1.
3000022   2   5   0   0   0   -1.5003132524E+01   -8.1057818977E+00   4.2821462509E+00   1.7583997334E+01   2.5000000000E-01   1.514899E+00   0.
13    1    7    0    0    0   7.7821124870E+00   1.0161886692E+01   2.6459011844E+01   2.9392440332E+01   1.0500000000E-01     0.000   1.
-13    1    7    0    0    0   7.2279450826E+00   9.3399661234E+00   2.4680396742E+01   2.7360759595E+01   1.0500000000E-01     0.000  -1.
13    1    9    0    0    0  -5.7368035151E+00  -3.1481293654E+00   1.5981199867E+00   6.7369611520E+00   1.0500000000E-01     0.000  -1.
-13    1    9    0    0    0  -9.2663290092E+00  -4.9576525324E+00   2.6840262641E+00   1.0847036182E+01   1.0500000000E-01     0.000   1.
</event>
<event>
 13   1  9.2978750E-05  1.2500000E+02  7.5467720E-03  1.2380620E-01
   21   -1    0    0  502  501   0.0000000000E+00   0.0000000000E+00   2.5337255559E+02   2.5337255559E+02   0.0000000000E+00     0.000   1.
   21   -1    0    0  501  502   0.0000000000E+00   0.0000000000E+00  -1.5417020959E+01   1.5417020959E+01   0.0000000000E+00     0.000   1.
   25    2    1    2    0    0   0.0000000000E+00   0.0000000000E+00   2.3795553463E+02   2.6878957655E+02   1.2500000000E+02  1.699E-08  -1.
3000002    2    3    0    0    0   2.6479818698E+01  -2.8268628532E+01   2.2223671982E+02   2.2580844934E+02   1.0000000000E+01  6.601E-10   1.
3000002    2    3    0    0    0  -2.6479818698E+01   2.8268628532E+01   1.5718814813E+01   4.2981127213E+01   1.0000000000E+01  1.404E-09   1.
3000001    1    4    0    0    0   1.7462239389E+01  -1.1422924953E+01   1.1444726977E+02   1.1633825930E+02   1.0000000000E+00     0.000  -1.
3000022   2   4   0   0   0   9.0175793083E+00   -1.6845703579E+01   1.0778945004E+02   1.0947019004E+02   2.5000000000E-01   8.146996E-01   0.
3000001    1    5    0    0    0  -1.9920397511E+01   1.4312489562E+01   1.0482377075E+01   2.6693628895E+01   1.0000000000E+00     0.000   1.
3000022   2   5   0   0   0   -6.5594211868E+00   1.3956138970E+01   5.2364377382E+00   1.6287498317E+01   2.5000000000E-01   2.138167E+00   0.
13    1    7    0    0    0   6.2651116687E+00  -1.1687515113E+01   7.5071773250E+01   7.6234059302E+01   1.0500000000E-01     0.000  -1.
-13    1    7    0    0    0   2.7524676396E+00  -5.1581884658E+00   3.2717676794E+01   3.3236130734E+01   1.0500000000E-01     0.000   1.
13    1    9    0    0    0  -3.7187130440E+00   7.8153111706E+00   2.9934160562E+00   9.1585741293E+00   1.0500000000E-01     0.000   1.
-13    1    9    0    0    0  -2.8407081428E+00   6.1408277992E+00   2.2430216820E+00   7.1289241880E+00   1.0500000000E-01     0.000  -1.
</event>
<event>
 13   1  9.2978750E-05  1.2500000E+02  7.5467720E-03  1.2380620E-01
   21   -1    0    0  502  501   0.0000000000E+00   0.0000000000E+00   3.6187945001E+01   3.6187945001E+01   0.0000000000E+00     0.000   1.
   21   -1    0    0  501  502   0.0000000000E+00   0.0000000000E+00  -1.0794340491E+02   1.0794340491E+02   0.0000000000E+00     0.000   1.
   25    2    1    2    0    0   0.0000000000E+00   0.0000000000E+00  -7.1755459908E+01   1.4413134991E+02   1.2500000000E+02  2.832E-08  -1.
3000002    2    3    0    0    0   5.3308809482E+01  -3.1007265738E+01  -3.3890496776E+01   7.1076335504E+01   1.0000000000E+01  1.179E-10   1.
3000002    2    3    0    0    0  -5.3308809482E+01   3.1007265738E+01  -3.7864963132E+01   7.3055014406E+01   1.0000000000E+01  2.712E-10   1.
3000001    1    4    0    0    0   3.2090874899E+01  -1.9529140570E+01  -1.5110811891E+01   4.0503681551E+01   1.0000000000E+00     0.000   1.
3000022   2   4   0   0   0   2.1217934583E+01   -1.1478125169E+01   -1.8779684885E+01   3.0572653953E+01   2.5000000000E-01   7.842712E+00   0.
3000001    1    5    0    0    0  -3.9468573344E+01   2.7515760180E+01  -3.0696304561E+01   5.7080193183E+01   1.0000000000E+00     0.000   1.
3000022   2   5   0   0   0   -1.3840236138E+01   3.4915055580E+00   -7.1686585711E+00   1.5974821223E+01   2.5000000000E-01   9.158497E-01   0.
13    1    7    0    0    0   1.3793559425E+01  -7.4917451341E+00  -1.2156053009E+01   1.9853694279E+01   1.0500000000E-01     0.000  -1.
-13    1    7    0    0    0   7.4243751579E+00  -3.9863800346E+00  -6.6236318765E+00   1.0718959674E+01   1.0500000000E-01     0.000   1.
13    1    9    0    0    0  -5.2231673241E+00   1.2572296714E+00  -2.7145028682E+00   6.0201041655E+00   1.0500000000E-01     0.000  -1.
-13    1    9    0    0    0  -8.6170688136E+00   2.2342758866E+00  -4.4541557029E+00   9.9547170578E+00   1.0500000000E-01     0.000   1.
</event>
<event>
 13   1  9.2978750E-05  1.2500000E+02  7.5467720E-03  1.2380620E-01
   21   -1    0    0  502  501   0.0000000000E+00   0.0000000000E+00   1.0071221815E+02   1.0071221815E+02   0.0000000000E+00     0.000   1.
   21   -1    0    0  501  502   0.0000000000E+00   0.0000000000E+00  -3.8786257236E+01   3.8786257236E+01   0.0000000000E+00     0.000   1.
   25    2    1    2    0    0   0.0000000000E+00   0.0000000000E+00   6.1925960914E+01   1.3949847539E+02   1.2500000000E+02  1.874E-09  -1.
3000002    2    3    0    0    0  -8.6631350254E+00  -1.0509479526E+01  -3.6188991990E+01   3.9939231461E+01   1.0000000000E+01  1.642E-09   1.
3000002    2    3    0    0    0   8.6631350254E+00   1.0509479526E+01   9.8114952904E+01   9.9559243929E+01   1.0000000000E+01  2.453E-11   1.
3000001    1    4    0    0    0  -6.8638695540E+00  -6.8968813039E+00  -3.3920666629E+01   3.5302851181E+01   1.0000000000E+00     0.000   1.
3000022   2   4   0   0   0   -1.7992654713E+00   -3.6125982219E+00   -2.2683253618E+00   4.6363802795E+00   2.5000000000E-01   2.407945E+00   0.
3000001    1    5    0    0    0   1.7405868509E+00   5.1660952257E+00   6.7261223880E+01   6.7489187432E+01   1.0000000000E+00     0.000   1.
3000022   2   5   0   0   0   6.9225481744E+00   5.3433843002E+00   3.0853729025E+01   3.2070056497E+01   2.5000000000E-01   3.333901E+00   0.
13    1    7    0    0    0  -1.1055105967E+00  -2.2297897582E+00  -1.3277472646E+00   2.8227741396E+00   1.0500000000E-01     0.000   1.
-13    1    7    0    0    0  -6.9375487467E-01  -1.3828084638E+00  -9.4057809725E-01   1.8136061399E+00   1.0500000000E-01     0.000  -1.
13    1    9    0    0    0   2.7618685139E+00   2.0646427168E+00   1.2047363049E+01   1.2531586040E+01   1.0500000000E-01     0.000   1.
-13    1    9    0    0    0   4.1606796605E+00   3.2787415834E+00   1.8806365976E+01   1.9538470458E+01   1.0500000000E-01     0.000  -1.
</event>
<event>
 13   1  9.2978750E-05  1.2500000E+02  7.5467720E-03  1.2380620E-01
   21   -1    0    0  502  501   0.0000000000E+00   0.0000000000E+00   1.6758183735E+01   1.6758183735E+01   0.0000000000E+00     0.000   1.
   21   -1    0    0  501  502   0.0000000000E+00   0.0000000000E+00  -2.3309506936E+02   2.3309506936E+02   0.0000000000E+00     0.000   1.
   25    2    1    2    0    0   0.0000000000E+00   0.0000000000E+00  -2.1633688562E+02   2.4985325309E+02   1.2500000000E+02  5.834E-08  -1.
3000002    2    3    0    0    0  -5.9114092457E+01  -1.2716113528E+01  -1.3265504303E+02   1.4612849111E+02   1.0000000000E+01  1.132E-10   1.
3000002    2    3    0    0    0   5.9114092457E+01   1.2716113528E+01  -8.3681842586E+01   1.0372476198E+02   1.0000000000E+01  1.862E-10   1.
3000001    1    4    0    0    0  -3.3479517804E+01  -6.5754234687E+00  -6.3010626254E+01   7.1662077329E+01   1.0000000000E+00     0.000   1.
3000022   2   4   0   0   0   -2.5634574653E+01   -6.1406900591E+00   -6.9644416780E+01   7.4466413776E+01   2.5000000000E-01   5.484069E+00   0.
3000001    1    5    0    0    0   3.1671722257E+01   2.0549919247E+00  -4.0578536366E+01   5.1526096263E+01   1.0000000000E+00     0.000  -1.
3000022   2   5   0   0   0   2.7442370200E+01   1.0661121603E+01   -4.3103306220E+01   5.2198665721E+01   2.5000000000E-01   8.469333E-01   0.
13    1    7    0    0    0  -1.6198773385E+01  -3.8354524006E+00  -4.4093993941E+01   4.7131754486E+01   1.0500000000E-01     0.000  -1.
-13    1    7    0    0    0  -9.4358012683E+00  -2.3052376586E+00  -2.5550422839E+01   2.7334659290E+01   1.0500000000E-01     0.000   1.
13    1    9    0    0    0   1.3022297684E+01   4.9866544970E+00  -2.0412617763E+01   2.4721103312E+01   1.0500000000E-01     0.000  -1.
-13    1    9    0    0    0   1.4420072516E+01   5.6744671062E+00  -2.2690688457E+01   2.7477562409E+01   1.0500000000E-01     0.000   1.
</event>
<event>
 13   1  9.2978750E-05  1.2500000E+02  7.5467720E-03  1.2380620E-01
   21   -1    0    0  502  501   0.0000000000E+00   0.0000000000E+00   2.3355952950E+01   2.3355952950E+01   0.0000000000E+00     0.000  -1.
   21   -1    0    0  501  502   0.0000000000E+00   0.0000000000E+00  -1.6724858148E+02   1.6724858148E+02   0.0000000000E+00     0.000  -1.
   25    2    1    2    0    0   0.0000000000E+00   0.0000000000E+00  -1.4389262853E+02   1.9060453443E+02   1.2500000000E+02  3.312E-08  -1.
3000002    2    3    0    0    0  -7.1217964185E-02   3.2843431334E+01   7.6897685627E+00   3.5182788326E+01   1.0000000000E+01  6.849E-10  -1.
3000002    2    3    0    0    0   7.1217964185E-02  -3.2843431334E+01  -1.5158239709E+02   1.5542174610E+02   1.0000000000E+01  2.695E-10  -1.
3000001    1    4    0    0    0  -3.4302191394E+00   1.0131392276E+01  -6.3010267778E-01   1.0761437738E+01   1.0000000000E+00     0.000   1.
3000022   2   4   0   0   0   3.3590011753E+00   2.2712039058E+01   8.3198712405E+00   2.4421350588E+01   2.5000000000E-01   1.149430E+01   0.
3000001    1    5    0    0    0   4.4658934636E+00  -9.1961404242E+00  -4.3967334021E+01   4.5151297480E+01   1.0000000000E+00     0.000  -1.
3000022   2   5   0   0   0   -4.3946754994E+00   -2.3647290910E+01   -1.0761506307E+02   1.1027044862E+02   2.5000000000E-01   3.222089E-01   0.
13    1    7    0    0    0   2.5373724280E+00   1.7227495936E+01   6.3289290995E+00   1.8528120347E+01   1.0500000000E-01     0.000  -1.
-13    1    7    0    0    0   8.2162874725E-01   5.4845431223E+00   1.9909421409E+00   5.8932302405E+00   1.0500000000E-01     0.000   1.
13    1    9    0    0    0  -1.5084695923E+00  -7.8741863417E+00  -3.5735684543E+01   3.6624151400E+01   1.0500000000E-01     0.000   1.
-13    1    9    0    0    0  -2.8862059071E+00  -1.5773104568E+01  -7.1879378528E+01   7.3646297225E+01   1.0500000000E-01     0.000  -1.
</event>
<event>
 13   1  9.2978750E-05  1.2500000E+02  7.5467720E-03  1.2380620E-01
   21   -1    0    0  502  501   0.0000000000E+00   0.0000000000E+00   1.2916297718E+03   1.2916297718E+03   0.0000000000E+00     0.000  -1.
   21   -1    0    0  501  502   0.0000000000E+00   0.0000000000E+00  -3.0242799333E+00   3.0242799333E+00   0.0000000000E+00     0.000  -1.
   25    2    1    2    0    0   0.0000000000E+00   0.0000000000E+00   1.2886054918E+03   1.2946540517E+03   1.2500000000E+02  1.862E-08  -1.
3000002    2    3    0    0    0  -3.3557423390E+01  -2.7290227126E+01   1.8865598436E+02   1.9380902352E+02   1.0000000000E+01  4.223E-10   1.
3000002    2    3    0    0    0   3.3557423390E+01   2.7290227126E+01   1.0999495074E+03   1.1008450282E+03   1.0000000000E+01  9.404E-10   1.
3000001    1    4    0    0    0  -2.8760726856E+01  -1.8301803368E+01   1.5045555368E+02   1.5427251554E+02   1.0000000000E+00     0.000  -1.
3000022   2   4   0   0   0   -4.7966965348E+00   -8.9884237574E+00   3.8200430678E+01   3.9536507980E+01   2.5000000000E-01   3.787781E+00   0.
3000001    1    5    0    0    0   1.7945189359E+00   5.3471839845E+00   1.6241896437E+02   1.6251994543E+02   1.0000000000E+00     0.000  -1.
3000022   2   5   0   0   0   3.1762904454E+01   2.1943043141E+01   9.3753054307E+02   9.3832508275E+02   2.5000000000E-01   1.388788E+00   0.
13    1    7    0    0    0  -3.0052748875E+00  -5.7324318969E+00   2.4130048131E+01   2.4983248395E+01   1.0500000000E-01     0.000   1.
-13    1    7    0    0    0  -1.7914216473E+00  -3.2559918606E+00   1.4070382547E+01   1.4553259584E+01   1.0500000000E-01     0.000  -1.
13    1    9    0    0    0   1.0828751308E+01   7.4851975419E+00   3.2102526796E+02   3.2129507268E+02   1.0500000000E-01     0.000   1.
-13    1    9    0    0    0   2.0934153146E+01   1.4457845599E+01   6.1650527511E+02   6.1703001007E+02   1.0500000000E-01     0.000  -1.
</event>
<event>
 13   1  9.2978750E-05  1.2500000E+02  7.5467720E-03  1.2380620E-01
   21   -1    0    0  502  501   0.0000000000E+00   0.0000000000E+00   3.6420577380E+02   3.6420577380E+02   0.0000000000E+00     0.000   1.
   21   -1    0    0  501  502   0.0000000000E+00   0.0000000000E+00  -1.0725392844E+01   1.0725392844E+01   0.0000000000E+00     0.000   1.
   25    2    1    2    0    0   0.0000000000E+00   0.0000000000E+00   3.5348038096E+02   3.7493116665E+02   1.2500000000E+02  2.850E-10  -1.
3000002    2    3    0    0    0   3.0939414744E+01   4.9767846466E+01   1.1887615029E+02   1.3291209514E+02   1.0000000000E+01  3.132E-10   1.
3000002    2    3    0    0    0  -3.0939414744E+01  -4.9767846466E+01   2.3460423067E+02   2.4201907151E+02   1.0000000000E+01  3.315E-10   1.
3000001    1    4    0    0    0   9.5821409870E-02   1.4665225802E+00   6.8619047232E+00   7.0884135497E+00   1.0000000000E+00     0.000  -1.
3000022   2   4   0   0   0   3.0843593334E+01   4.8301323886E+01   1.1201424556E+02   1.2582368159E+02   2.5000000000E-01   2.167256E+00   0.
3000001    1    5    0    0    0  -4.8751158067E+00  -4.5845891490E+00   3.8811987506E+01   3.9397405828E+01   1.0000000000E+00     0.000  -1.
3000022   2   5   0   0   0   -2.6064298937E+01   -4.5183257317E+01   1.9579224317E+02   2.0262166569E+02   2.5000000000E-01   1.162664E+01   0.
13    1    7    0    0    0   1.7255980121E+01   2.7085199365E+01   6.2645423841E+01   7.0397706126E+01   1.0500000000E-01     0.000   1.
-13    1    7    0    0    0   1.3587613214E+01   2.1216124521E+01   4.9368821724E+01   5.5425975462E+01   1.0500000000E-01     0.000  -1.
13    1    9    0    0    0  -1.1927683319E+01  -2.0807289948E+01   8.9960561163E+01   9.3102774041E+01   1.0500000000E-01     0.000  -1.
-13    1    9    0    0    0  -1.4136615618E+01  -2.4375967368E+01   1.0583168200E+02   1.0951889164E+02   1.0500000000E-01     0.000   1.
</event>
<event>
 13   1  9.2978750E-05  1.2500000E+02  7.5467720E-03  1.2380620E-01
   21   -1    0    0  502  501   0.0000000000E+00   0.0000000000E+00   1.5096179847E+02   1.5096179847E+02   0.0000000000E+00     0.000   1.
   21   -1    0    0  501  502   0.0000000000E+00   0.0000000000E+00  -2.5875751611E+01   2.5875751611E+01   0.0000000000E+00     0.000   1.
   25    2    1    2    0    0   0.0000000000E+00   0.0000000000E+00   1.2508604686E+02   1.7683755008E+02   1.2500000000E+02  1.262E-07  -1.
3000002    2    3    0    0    0  -5.5349290066E+00  -6.0885073442E+01   5.0823838574E+01   8.0129209247E+01   1.0000000000E+01  3.206E-11   1.
3000002    2    3    0    0    0   5.5349290066E+00   6.0885073442E+01   7.4262208286E+01   9.6708340833E+01   1.0000000000E+01  1.818E-11   1.
3000001    1    4    0    0    0   2.0436756608E+00  -3.1907214070E+01   2.6840879781E+01   4.1757391529E+01   1.0000000000E+00     0.000  -1.
3000022   2   4   0   0   0   -7.5786046674E+00   -2.8977859372E+01   2.3982958793E+01   3.8371817718E+01   2.5000000000E-01   1.164066E+00   0.
3000001    1    5    0    0    0   6.8664240585E+00   3.8397566674E+01   5.2245226741E+01   6.5208010421E+01   1.0000000000E+00     0.000   1.
3000022   2   5   0   0   0   -1.3314950519E+00   2.2487506768E+01   2.2016981545E+01   3.1500330412E+01   2.5000000000E-01   3.327522E-02   0.
13    1    7    0    0    0  -2.8410300742E+00  -1.1088172930E+01   9.1934853870E+00   1.4681628976E+01   1.0500000000E-01     0.000  -1.
-13    1    7    0    0    0  -4.7375745932E+00  -1.7889686442E+01   1.4789473406E+01   2.3690188742E+01   1.0500000000E-01     0.000   1.
13    1    9    0    0    0  -4.2740393612E-01   7.3398039859E+00   7.1141041296E+00   1.0231172916E+01   1.0500000000E-01     0.000   1.
-13    1    9    0    0    0  -9.0409111575E-01   1.5147702782E+01   1.4902877415E+01   2.1269157496E+01   1.0500000000E-01     0.000  -1.
</event>
<event>
 13   1  9.2978750E-05  1.2500000E+02  7.5467720E-03  1.2380620E-01
   21   -1    0    0  502  501   0.0000000000E+00   0.0000000000E+00   5.3736407900E+01   5.3736407900E+01   0.0000000000E+00     0.000   1.
   21   -1    0    0  501  502   0.0000000000E+00   0.0000000000E+00  -7.2692800889E+01   7.2692800889E+01   0.0000000000E+00     0.000   1.
   25    2    1    2    0    0   0.0000000000E+00   0.0000000000E+00  -1.8956392989E+01   1.2642920879E+02   1.2500000000E+02  4.213E-08  -1.
3000002    2    3    0    0    0  -3.7632396218E+00  -1.8473156660E+01   4.9937230377E+01   5.4306044481E+01   1.0000000000E+01  1.520E-10  -1.
3000002    2    3    0    0    0   3.7632396218E+00   1.8473156660E+01  -6.8893623366E+01   7.2123164309E+01   1.0000000000E+01  4.491E-10  -1.
3000001    1    4    0    0    0  -2.4751880146E+00  -1.7289566181E+00   2.7008954899E+00   4.1726110701E+00   1.0000000000E+00     0.000  -1.
3000022   2   4   0   0   0   -1.2880516072E+00   -1.6744200042E+01   4.7236334887E+01   5.0133433411E+01   2.5000000000E-01   3.535102E+00   0.
3000001    1    5    0    0    0   3.3233583820E+00   5.2721879787E+00  -3.8042393105E+01   3.8562473341E+01   1.0000000000E+00     0.000  -1.
3000022   2   5   0   0   0   4.3988123982E-01   1.3200968681E+01   -3.0851230261E+01   3.3560690968E+01   2.5000000000E-01   9.352735E-01   0.
13    1    7    0    0    0  -5.5476348942E-01  -6.8862902188E+00   1.9256699049E+01   2.0458744800E+01   1.0500000000E-01     0.000   1.
-13    1    7    0    0    0  -7.3328811776E-01  -9.8579098228E+00   2.7979635838E+01   2.9674688611E+01   1.0500000000E-01     0.000  -1.
13    1    9    0    0    0   1.1178448287E-01   4.7527944187E+00  -1.1017186515E+01   1.1999623922E+01   1.0500000000E-01     0.000   1.
-13    1    9    0    0    0   3.2809675695E-01   8.4481742624E+00  -1.9834043746E+01   2.1561067046E+01   1.0500000000E-01     0.000  -1.
</event>
<event>
 13   1  9.2978750E-05  1.2500000E+02  7.5467720E-03  1.2380620E-01
   21   -1    0    0  502  501   0.0000000000E+00   0.0000000000E+00   5.8777729098E+01   5.8777729098E+01   0.0000000000E+00     0.000   1.
   21   -1    0    0  501  502   0.0000000000E+00   0.0000000000E+00  -6.6457994549E+01   6.6457994549E+01   0.0000000000E+00     0.000   1.
   25    2    1    2    0    0   0.0000000000E+00   0.0000000000E+00  -7.6802654511E+00   1.2523572365E+02   1.2500000000E+02  6.166E-08  -1.
3000002    2    3    0    0    0  -5.8200725950E+01  -2.0406074541E+01  -2.2504392841E+00   6.2520371530E+01   1.0000000000E+01  6.210E-10  -1.
3000002    2    3    0    0    0   5.8200725950E+01   2.0406074541E+01  -5.4298261670E+00   6.2715352120E+01   1.0000000000E+01  2.973E-10  -1.
3000001    1    4    0    0    0  -2.4478092903E+01  -1.3752519211E+01  -1.6103872916E+00   2.8140756281E+01   1.0000000000E+00     0.000   1.
3000022   2   4   0   0   0   -3.3722633047E+01   -6.6535553306E+00   -6.4005199246E-01   3.4379615250E+01   2.5000000000E-01   5.039808E+00   0.
3000001    1    5    0    0    0   3.1038736879E+01   9.1778454154E+00  -7.5349481468E+00   3.3247728901E+01   1.0000000000E+00     0.000  -1.
3000022   2   5   0   0   0   2.7161989071E+01   1.1228229126E+01   2.1051219798E+00   2.9467623218E+01   2.5000000000E-01   1.518127E-01   0.
13    1    7    0    0    0  -1.8825248752E+01  -3.7508536748E+00  -3.0176141346E-01   1.9197942047E+01   1.0500000000E-01     0.000   1.
-13    1    7    0    0    0  -1.4897384294E+01  -2.9027016559E+00  -3.3829057899E-01   1.5181673203E+01   1.0500000000E-01     0.000  -1.
13    1    9    0    0    0   1.2680155298E+01   5.2944139599E+00   9.3756162412E-01   1.3773423843E+01   1.0500000000E-01     0.000   1.
-13    1    9    0    0    0   1.4481833773E+01   5.9338151661E+00   1.1675603557E+00   1.5694199375E+01   1.0500000000E-01     0.000  -1.
</event>
<event>
 13   1  9.2978750E-05  1.2500000E+02  7.5467720E-03  1.2380620E-01
   21   -1    0    0  502  501   0.0000000000E+00   0.0000000000E+00   3.8133287668E+01   3.8133287668E+01   0.0000000000E+00     0.000  -1.
   21   -1    0    0  501  502   0.0000000000E+00   0.0000000000E+00  -1.0243674854E+02   1.0243674854E+02   0.0000000000E+00     0.000  -1.
   25    2    1    2    0    0   0.0000000000E+00   0.0000000000E+00  -6.4303460876E+01   1.4057003621E+02   1.2500000000E+02  6.750E-08  -1.
3000002    2    3    0    0    0  -3.5727767654E+01  -4.9266242715E+01  -4.3543362264E+01   7.5496095595E+01   1.0000000000E+01  7.964E-11   1.
3000002    2    3    0    0    0   3.5727767654E+01   4.9266242715E+01  -2.0760098612E+01   6.5073940615E+01   1.0000000000E+01  5.782E-10   1.
3000001    1    4    0    0    0  -2.5481691791E+01  -3.6820700303E+01  -3.7003413724E+01   5.8097617977E+01   1.0000000000E+00     0.000   1.
3000022   2   4   0   0   0   -1.0246075863E+01   -1.2445542412E+01   -6.5399485397E+00   1.7398477618E+01   2.5000000000E-01   5.705219E-01   0.
3000001    1    5    0    0    0   9.6022909849E+00   9.4116777211E+00  -1.1153868874E+00   1.3528775170E+01   1.0000000000E+00     0.000  -1.
3000022   2   5   0   0   0   2.6125476669E+01   3.9854564994E+01   -1.9644711725E+01   5.1545165445E+01   2.5000000000E-01   1.811751E+00   0.
13    1    7    0    0    0  -4.3545796228E+00  -5.2843879987E+00  -2.8482780511E+00   7.4169288164E+00   1.0500000000E-01     0.000   1.
-13    1    7    0    0    0  -5.8914962397E+00  -7.1611544132E+00  -3.6916704886E+00   9.9815488011E+00   1.0500000000E-01     0.000  -1.
13    1    9    0    0    0   1.3219512000E+01   2.0285674513E+01  -9.9619013767E+00   2.6182333586E+01   1.0500000000E-01     0.000  -1.
-13    1    9    0    0    0   1.2905964669E+01   1.9568890481E+01  -9.6828103479E+00   2.5362831860E+01   1.0500000000E-01     0.000   1.
</event>
<event>
 13   1  9.2978750E-05  1.2500000E+02  7.5467720E-03  1.2380620E-01
   21   -1    0    0  502  501   0.0000000000E+00   0.0000000000E+00   1.2689140780E+02   1.2689140780E+02   0.0000000000E+00     0.000  -1.
   21   -1    0    0  501  502   0.0000000000E+00   0.0000000000E+00  -3.0784196249E+01   3.0784196249E+01   0.0000000000E+00     0.000  -1.
   25    2    1    2    0    0   0.0000000000E+00   0.0000000000E+00   9.6107211552E+01   1.5767560405E+02   1.2500000000E+02  1.244E-08  -1.
3000002    2    3    0    0    0   4.9106787131E+01  -1.3978172471E-01   9.5162540710E+01   1.0755187230E+02   1.0000000000E+01  6.807E-10   1.
3000002    2    3    0    0    0  -4.9106787131E+01   1.3978172471E-01   9.4467084170E-01   5.0123731748E+01   1.0000000000E+01  1.364E-11   1.
3000001    1    4    0    0    0   2.1984085095E+01  -1.3894690092E+00   5.2982360790E+01   5.7387813832E+01   1.0000000000E+00     0.000  -1.
3000022   2   4   0   0   0   2.7122702036E+01   1.2496872845E+00   4.2180179921E+01   5.0164058470E+01   2.5000000000E-01   6.325436E-01   0.
3000001    1    5    0    0    0  -1.5869062027E+01  -4.5692977766E+00   2.4670054776E-01   1.6545889911E+01   1.0000000000E+00     0.000  -1.
3000022   2   5   0   0   0   -3.3237725105E+01   4.7090795013E+00   6.9797029393E-01   3.3577841837E+01   2.5000000000E-01   5.807282E+00   0.
13    1    7    0    0    0   1.8122490162E+01   8.7245025186E-01   2.8115568379E+01   3.3461650130E+01   1.0500000000E-01     0.000  -1.
-13    1    7    0    0    0   9.0002118739E+00   3.7723703263E-01   1.4064611541E+01   1.6702408340E+01   1.0500000000E-01     0.000   1.
13    1    9    0    0    0  -2.2870696193E+01   3.1930130802E+00   4.6589962240E-01   2.3097449304E+01   1.0500000000E-01     0.000  -1.
-13    1    9    0    0    0  -1.0367028911E+01   1.5160664211E+00   2.3207067153E-01   1.0480392533E+01   1.0500000000E-01     0.000   1.
</event>
<event>
 13   1  9.2978750E-05  1.2500000E+02  7.5467720E-03  1.2380620E-01
   21   -1    0    0  502  501   0.0000000000E+00   0.0000000000E+00   1.4478044795E+01   1.4478044795E+01   0.0000000000E+00     0.000  -1.
   21   -1    0    0  501  502   0.0000000000E+00   0.0000000000E+00  -2.6980507764E+02   2.6980507764E+02   0.0000000000E+00     0.000  -1.
   25    2    1    2    0    0   0.0000000000E+00   0.0000000000E+00  -2.5532703284E+02   2.8428312243E+02   1.2500000000E+02  3.038E-08  -1.
3000002    2    3    0    0    0   5.2887935386E+01  -3.1069088669E+01  -1.4271977235E+02   1.5566423931E+02   1.0000000000E+01  1.714E-09  -1.
3000002    2    3    0    0    0  -5.2887935386E+01   3.1069088669E+01  -1.1260726049E+02   1.2861888312E+02   1.0000000000E+01  5.231E-10  -1.
3000001    1    4    0    0    0   3.1461696054E+01  -1.7055246366E+01  -7.1085472509E+01   7.9591859816E+01   1.0000000000E+00     0.000  -1.
3000022   2   4   0   0   0   2.1426239332E+01   -1.4013842303E+01   -7.1634299844E+01   7.6072379496E+01   2.5000000000E-01   8.435662E+00   0.
3000001    1    5    0    0    0  -1.4724864028E+01   9.0841534212E+00  -4.1543455711E+01   4.5013355534E+01   1.0000000000E+00     0.000   1.
3000022   2   5   0   0   0   -3.8163071358E+01   2.1984935248E+01   -7.1063804776E+01   8.3605527584E+01   2.5000000000E-01   6.592947E+00   0.
13    1    7    0    0    0   1.0972247953E+01  -7.1608097601E+00  -3.6857085928E+01   3.9116789614E+01   1.0500000000E-01     0.000  -1.
-13    1    7    0    0    0   1.0453991379E+01  -6.8530325431E+00  -3.4777213916E+01   3.6955589882E+01   1.0500000000E-01     0.000   1.
13    1    9    0    0    0  -1.9115183139E+01   1.0951229923E+01  -3.5627173930E+01   4.1888258623E+01   1.0500000000E-01     0.000  -1.
-13    1    9    0    0    0  -1.9047888219E+01   1.1033705325E+01  -3.5436630846E+01   4.1717268960E+01   1.0500000000E-01     0.000   1.
</event>
<event>
 13   1  9.2978750E-05  1.2500000E+02  7.5467720E-03  1.2380620E-01
   21   -1    0    0  502  501   0.0000000000E+00   0.0000000000E+00   2.4985954010E+01   2.4985954010E+01   0.0000000000E+00     0.000   1.
   21   -1    0    0  501  502   0.0000000000E+00   0.0000000000E+00  -1.5633783679E+02   1.5633783679E+02   0.0000000000E+00     0.000   1.
   25    2    1    2    0    0   0.0000000000E+00   0.0000000000E+00  -1.3135188278E+02   1.8132379080E+02   1.2500000000E+02  7.160E-08  -1.
3000002    2    3    0    0    0  -5.1420018813E+01   3.4079612456E+01  -6.4369056756E+01   8.9715181477E+01   1.0000000000E+01  4.191E-10  -1.
3000002    2    3    0    0    0   5.1420018813E+01  -3.4079612456E+01  -6.6982826024E+01   9.1608609323E+01   1.0000000000E+01  1.423E-09  -1.
3000001    1    4    0    0    0  -2.8089865787E+01   2.4356397336E+01  -3.7082325795E+01   5.2520220273E+01   1.0000000000E+00     0.000   1.
3000022   2   4   0   0   0   -2.3330153025E+01   9.7232151195E+00   -2.7286730961E+01   3.7194961204E+01   2.5000000000E-01   2.229162E+00   0.
3000001    1    5    0    0    0   3.9881649837E+01  -2.6174811067E+01  -4.5223342267E+01   6.5740530983E+01   1.0000000000E+00     0.000  -1.
3000022   2   5   0   0   0   1.1538368976E+01   -7.9048013887E+00   -2.1759483757E+01   2.5868078340E+01   2.5000000000E-01   6.424499E-01   0.
13    1    7    0    0    0  -1.6037090254E+01   6.7132352371E+00  -1.8828406440E+01   2.5627635576E+01   1.0500000000E-01     0.000  -1.
-13    1    7    0    0    0  -7.2930627713E+00   3.0099798824E+00  -8.4583245216E+00   1.1567325628E+01   1.0500000000E-01     0.000   1.
13    1    9    0    0    0   8.1742881504E+00  -5.5579514900E+00  -1.5426488284E+01   1.8322046210E+01   1.0500000000E-01     0.000  -1.
-13    1    9    0    0    0   3.3640808259E+00  -2.3468498987E+00  -6.3329954731E+00   7.5460321304E+00   1.0500000000E-01     0.000   1.
</event>
<event>
 13   1  9.2978750E-05  1.2500000E+02  7.5467720E-03  1.2380620E-01
   21   -1    0    0  502  501   0.0000000000E+00   0.0000000000E+00   3.2032623644E+01   3.2032623644E+01   0.0000000000E+00     0.000   1.
   21   -1    0    0  501  502   0.0000000000E+00   0.0000000000E+00  -1.2194598992E+02   1.2194598992E+02   0.0000000000E+00     0.000   1.
   25    2    1    2    0    0   0.0000000000E+00   0.0000000000E+00  -8.9913366275E+01   1.5397861356E+02   1.2500000000E+02  3.442E-09  -1.
3000002    2    3    0    0    0   2.7196679051E+00  -6.1184152830E+01  -5.4121428026E+01   8.2340914025E+01   1.0000000000E+01  7.130E-11  -1.
3000002    2    3    0    0    0  -2.7196679051E+00   6.1184152830E+01  -3.5791938249E+01   7.1637699535E+01   1.0000000000E+01  4.418E-10  -1.
3000001    1    4    0    0    0   5.2010938293E+00  -1.9173786353E+01  -1.9340167647E+01   2.7743964113E+01   1.0000000000E+00     0.000   1.
3000022   2   4   0   0   0   -2.4814259242E+00   -4.2010366477E+01   -3.4781260379E+01   5.4596949912E+01   2.5000000000E-01   3.933281E-01   0.
3000001    1    5    0    0    0  -1.8580975979E+00   4.2155574413E+01  -1.9178170659E+01   4.6361052734E+01   1.0000000000E+00     0.000  -1.
3000022   2   5   0   0   0   -8.6157030713E-01   1.9028578417E+01   -1.6613767590E+01   2.5276646801E+01   2.5000000000E-01   1.011505E+01   0.
13    1    7    0    0    0  -8.6456019963E-01  -1.5645933444E+01  -1.2942439552E+01   2.0323889004E+01   1.0500000000E-01     0.000  -1.
-13    1    7    0    0    0  -1.6168657246E+00  -2.6364433033E+01  -2.1838820827E+01   3.4273060908E+01   1.0500000000E-01     0.000   1.
13    1    9    0    0    0  -5.3058364148E-01   1.1045324376E+01  -9.5687451805E+00   1.4623700589E+01   1.0500000000E-01     0.000   1.
-13    1    9    0    0    0  -3.3098666566E-01   7.9832540405E+00  -7.0450224096E+00   1.0652946212E+01   1.0500000000E-01     0.000  -1.
</event>
<event>
 13   1  9.2978750E-05  1.2500000E+02  7.5467720E-03  1.2380620E-01
   21   -1    0    0  502  501   0.0000000000E+00   0.0000000000E+00   5.1408648925E+01   5.1408648925E+01   0.0000000000E+00     0.000   1.
   21   -1    0    0  501  502   0.0000000000E+00   0.0000000000E+00  -7.5984296061E+01   7.5984296061E+01   0.0000000000E+00     0.000   1.
   25    2    1    2    0    0   0.0000000000E+00   0.0000000000E+00  -2.4575647135E+01   1.2739294499E+02   1.2500000000E+02  1.900E-07  -1.
3000002    2    3    0    0    0  -5.1088230460E-02   5.7988821087E+01  -3.3751480999E+01   6.7837072834E+01   1.0000000000E+01  5.311E-10   1.
3000002    2    3    0    0    0   5.1088230460E-02  -5.7988821087E+01   9.1758338645E+00   5.9555872156E+01   1.0000000000E+01  1.237E-10   1.
3000001    1    4    0    0    0  -1.7745208346E+00   2.3861679694E+01  -8.7536834192E+00   2.5498150039E+01   1.0000000000E+00     0.000   1.
3000022   2   4   0   0   0   1.7234326042E+00   3.4127141394E+01   -2.4997797580E+01   4.2338922796E+01   2.5000000000E-01   9.058366E-04   0.
3000001    1    5    0    0    0  -4.8160002841E+00  -2.5904199698E+01   3.2492117878E+00   2.6566497661E+01   1.0000000000E+00     0.000   1.
3000022   2   5   0   0   0   4.8670885145E+00   -3.2084621389E+01   5.9266220766E+00   3.2989374494E+01   2.5000000000E-01   8.227873E+00   0.
13    1    7    0    0    0   8.2536855863E-01   1.7578880504E+01  -1.2906950441E+01   2.1824267862E+01   1.0500000000E-01     0.000  -1.
-13    1    7    0    0    0   8.9806404555E-01   1.6548260890E+01  -1.2090847139E+01   2.0514654934E+01   1.0500000000E-01     0.000   1.
13    1    9    0    0    0   3.1306419437E+00  -2.1009110560E+01   3.8770744366E+00   2.1592275857E+01   1.0500000000E-01     0.000   1.
-13    1    9    0    0    0   1.7364465709E+00  -1.1075510829E+01   2.0495476400E+00   1.1397098637E+01   1.0500000000E-01     0.000  -1.
</event>
<event>
 13   1  9.2978750E-05  1.2500000E+02  7.5467720E-03  1.2380620E-01
   21   -1    0    0  502  501   0.0000000000E+00   0.0000000000E+00   6.0705224314E+00   6.0705224314E+00   0.0000000000E+00     0.000   1.
   21   -1    0    0  501  502   0.0000000000E+00   0.0000000000E+00  -6.4347838990E+02   6.4347838990E+02   0.0000000000E+00     0.000   1.
   25    2    1    2    0    0   0.0000000000E+00   0.0000000000E+00  -6.3740786747E+02   6.4954891233E+02   1.2500000000E+02  1.421E-08  -1.
3000002    2    3    0    0    0   3.2386244838E+01   4.1553855402E+01  -4.8552818640E+02   4.8848051296E+02   1.0000000000E+01  1.566E-09  -1.
3000002    2    3    0    0    0  -3.2386244838E+01  -4.1553855402E+01  -1.5187968107E+02   1.6106839937E+02   1.0000000000E+01  5.172E-11  -1.
3000001    1    4    0    0    0   4.0260754319E+00   9.1117146908E+00  -6.7717141858E+01   6.8453224391E+01   1.0000000000E+00     0.000  -1.
3000022   2   4   0   0   0   2.8360169406E+01   3.2442140712E+01   -4.1781104454E+02   4.2002728857E+02   2.5000000000E-01   9.437633E-02   0.
3000001    1    5    0    0    0  -2.4173239544E+01  -2.5127754566E+01  -9.0106590567E+01   9.6622705526E+01   1.0000000000E+00     0.000  -1.
3000022   2   5   0   0   0   -8.2130052936E+00   -1.6426100837E+01   -6.1773090505E+01   6.4445693845E+01   2.5000000000E-01   1.037459E+01   0.
13    1    7    0    0    0   2.1282480823E+01   2.4326149882E+01  -3.1317048390E+02   3.1483403337E+02   1.0500000000E-01     0.000  -1.
-13    1    7    0    0    0   7.0776885829E+00   8.1159908291E+00  -1.0464056064E+02   1.0519325520E+02   1.0500000000E-01     0.000   1.
13    1    9    0    0    0  -2.4337529287E+00  -4.8596360211E+00  -1.8440100503E+01   1.9224659871E+01   1.0500000000E-01     0.000  -1.
-13    1    9    0    0    0  -5.7792523649E+00  -1.1566464816E+01  -4.3332990001E+01   4.5221033974E+01   1.0500000000E-01     0.000   1.
</event>
<event>
 13   1  9.2978750E-05  1.2500000E+02  7.5467720E-03  1.2380620E-01
   21   -1    0    0  502  501   0.0000000000E+00   0.0000000000E+00   2.3343624191E+01   2.3343624191E+01   0.0000000000E+00     0.000  -1.
   21   -1    0    0  501  502   0.0000000000E+00   0.0000000000E+00  -1.6733691256E+02   1.6733691256E+02   0.0000000000E+00     0.000  -1.
   25    2    1    2    0    0   0.0000000000E+00   0.0000000000E+00  -1.4399328837E+02   1.9068053675E+02   1.2500000000E+02  3.416E-08  -1.
3000002    2    3    0    0    0  -1.7688033542E+01   5.6693310373E+01  -4.6505195288E+01   7.6090282957E+01   1.0000000000E+01  2.160E-10   1.
3000002    2    3    0    0    0   1.7688033542E+01  -5.6693310373E+01  -9.7488093082E+01   1.1459025379E+02   1.0000000000E+01  4.211E-11   1.
3000001    1    4    0    0    0  -1.2670513803E+01   2.5060899293E+01  -2.3881284859E+01   3.6876908221E+01   1.0000000000E+00     0.000  -1.
3000022   2   4   0   0   0   -5.0175197390E+00   3.1632411080E+01   -2.2623910429E+01   3.9213374736E+01   2.5000000000E-01   1.993255E+00   0.
3000001    1    5    0    0    0   1.0983048568E+00  -5.0664685976E+00  -1.4736198496E+01   1.5653463633E+01   1.0000000000E+00     0.000   1.
3000022   2   5   0   0   0   1.6589728686E+01   -5.1626841776E+01   -8.2751894586E+01   9.8936790160E+01   2.5000000000E-01   2.986440E+00   0.
13    1    7    0    0    0  -3.2113740316E+00   1.9864919328E+01  -1.4209954378E+01   2.4634564569E+01   1.0500000000E-01     0.000   1.
-13    1    7    0    0    0  -1.8061457074E+00   1.1767491752E+01  -8.4139560507E+00   1.4578810167E+01   1.0500000000E-01     0.000  -1.
13    1    9    0    0    0   5.0293869620E+00  -1.5799517496E+01  -2.5327862433E+01   3.0272613478E+01   1.0500000000E-01     0.000   1.
-13    1    9    0    0    0   1.1560341724E+01  -3.5827324279E+01  -5.7424032152E+01   6.8664176682E+01   1.0500000000E-01     0.000  -1.
</event>
<event>
 13   1  9.2978750E-05  1.2500000E+02  7.5467720E-03  1.2380620E-01
   21   -1    0    0  502  501   0.0000000000E+00   0.0000000000E+00   2.4239802001E+02   2.4239802001E+02   0.0000000000E+00     0.000   1.
   21   -1    0    0  501  502   0.0000000000E+00   0.0000000000E+00  -1.6115024371E+01   1.6115024371E+01   0.0000000000E+00     0.000   1.
   25    2    1    2    0    0   0.0000000000E+00   0.0000000000E+00   2.2628299564E+02   2.5851304438E+02   1.2500000000E+02  9.581E-08  -1.
3000002    2    3    0    0    0  -3.1729297701E+00  -4.5114374184E+01   1.9992492691E+02   2.0522024910E+02   1.0000000000E+01  3.248E-11  -1.
3000002    2    3    0    0    0   3.1729297701E+00   4.5114374184E+01   2.6358068729E+01   5.3292795277E+01   1.0000000000E+01  1.069E-09  -1.
3000001    1    4    0    0    0  -6.2683580276E+00  -3.3739714923E+01   1.5663261325E+02   1.6035097820E+02   1.0000000000E+00     0.000  -1.
3000022   2   4   0   0   0   3.0954282575E+00   -1.1374659261E+01   4.3292313658E+01   4.4869270902E+01   2.5000000000E-01   1.657009E+00   0.
3000001    1    5    0    0    0   2.7101666119E+00   4.2470726921E+01   2.1390299554E+01   4.7640870723E+01   1.0000000000E+00     0.000  -1.
3000022   2   5   0   0   0   4.6276315822E-01   2.6436472633E+00   4.9677691744E+00   5.6519245539E+00   2.5000000000E-01   2.201024E+00   0.
13    1    7    0    0    0   1.3112712337E+00  -5.0073686165E+00   1.9176045681E+01   1.9862651527E+01   1.0500000000E-01     0.000  -1.
-13    1    7    0    0    0   1.7841570238E+00  -6.3672906449E+00   2.4116267977E+01   2.5006619375E+01   1.0500000000E-01     0.000   1.
13    1    9    0    0    0   3.4076616861E-01   2.0230176302E+00   3.7654232394E+00   4.2893075299E+00   1.0500000000E-01     0.000  -1.
-13    1    9    0    0    0   1.2199698961E-01   6.2062963310E-01   1.2023459350E+00   1.3626170241E+00   1.0500000000E-01     0.000   1.
</event>
<event>
 13   1  9.2978750E-05  1.2500000E+02  7.5467720E-03  1.2380620E-01
   21   -1    0    0  502  501   0.0000000000E+00   0.0000000000E+00   7.0749550299E+00   7.0749550299E+00   0.0000000000E+00     0.000  -1.
   21   -1    0    0  501  502   0.0000000000E+00   0.0000000000E+00  -5.5212365075E+02   5.5212365075E+02   0.0000000000E+00     0.000  -1.
   25    2    1    2    0    0   0.0000000000E+00   0.0000000000E+00  -5.4504869572E+02   5.5919860578E+02   1.2500000000E+02  5.957E-09  -1.
3000002    2    3    0    0    0   5.5469759200E+01  -2.6559473693E+01  -2.9441760516E+02   3.0093857522E+02   1.0000000000E+01  7.659E-11  -1.
3000002    2    3    0    0    0  -5.5469759200E+01   2.6559473693E+01  -2.5063109056E+02   2.5826003056E+02   1.0000000000E+01  1.393E-09  -1.
3000001    1    4    0    0    0   1.9426722309E+01  -4.5410428274E+00  -1.0247356749E+02   1.0440234980E+02   1.0000000000E+00     0.000  -1.
3000022   2   4   0   0   0   3.6043036890E+01   -2.2018430866E+01   -1.9194403767E+02   1.9653622543E+02   2.5000000000E-01   3.567365E+00   -1.
3000001    1    5    0    0    0  -5.9138034783E+00   6.9862076090E-01  -1.7191324907E+01   1.8220943845E+01   1.0000000000E+00     0.000   1.
3000022   2   5   0   0   0   -4.9555955721E+01   2.5860852932E+01   -2.3343976565E+02   2.4003908671E+02   2.5000000000E-01   2.483657E+00   0.
13    1    7    0    0    0   1.9901204517E+01  -1.2083107810E+01  -1.0571182168E+02   1.0824536805E+02   1.0500000000E-01     0.000  -1.
-13    1    7    0    0    0   1.6141832374E+01  -9.9353230560E+00  -8.6232215994E+01   8.8290857380E+01   1.0500000000E-01     0.000  -1.
13    1    9    0    0    0  -2.2374424283E+01   1.1740039545E+01  -1.0567290474E+02   1.0865181642E+02   1.0500000000E-01     0.000  -1.
-13    1    9    0    0    0  -2.7181531439E+01   1.4120813387E+01  -1.2776686091E+02   1.3138727029E+02   1.0500000000E-01     0.000   1.
</event>
<event>
 13   1  9.2978750E-05  1.2500000E+02  7.5467720E-03  1.2380620E-01
   21   -1    0    0  502  501   0.0000000000E+00   0.0000000000E+00   1.0358105601E+01   1.0358105601E+01   0.0000000000E+00     0.000  -1.
   21   -1    0    0  501  502   0.0000000000E+00   0.0000000000E+00  -3.7712011737E+02   3.7712011737E+02   0.0000000000E+00     0.000  -1.
   25    2    1    2    0    0   0.0000000000E+00   0.0000000000E+00  -3.6676201177E+02   3.8747822298E+02   1.2500000000E+02  1.768E-07  -1.
3000002    2    3    0    0    0   5.0873551406E+01   3.0987201369E+01  -1.3359765710E+02   1.4661738937E+02   1.0000000000E+01  4.456E-10  -1.
3000002    2    3    0    0    0  -5.0873551406E+01  -3.0987201369E+01  -2.3316435467E+02   2.4086083361E+02   1.0000000000E+01  2.977E-09  -1.
3000001    1    4    0    0    0   3.7547685295E+01   1.7517925400E+01  -9.2725017392E+01   1.0156591570E+02   1.0000000000E+00     0.000  -1.
3000022   2   4   0   0   0   1.3325866111E+01   1.3469275970E+01   -4.0872639710E+01   4.5051473667E+01   2.5000000000E-01   1.360215E+01   0.
3000001    1    5    0    0    0  -3.8490284273E+01  -1.8664410892E+01  -1.5786270643E+02   1.6355884660E+02   1.0000000000E+00     0.000  -1.
3000022   2   5   0   0   0   -1.2383267133E+01   -1.2322790477E+01   -7.5301648236E+01   7.7301987019E+01   2.5000000000E-01   8.218547E+00   0.
13    1    7    0    0    0   4.2836465033E+00   4.2656239097E+00  -1.3095828418E+01   1.4424178370E+01   1.0500000000E-01     0.000  -1.
-13    1    7    0    0    0   9.0422196076E+00   9.2036520598E+00  -2.7776811292E+01   3.0627295297E+01   1.0500000000E-01     0.000   1.
13    1    9    0    0    0  -5.3331635536E+00  -5.2633574574E+00  -3.2043573376E+01   3.2908162892E+01   1.0500000000E-01     0.000  -1.
-13    1    9    0    0    0  -7.0501035799E+00  -7.0594330198E+00  -4.3258074860E+01   4.4393824127E+01   1.0500000000E-01     0.000   1.
</event>
<event>
 13   1  9.2978750E-05  1.2500000E+02  7.5467720E-03  1.2380620E-01
   21   -1    0    0  502  501   0.0000000000E+00   0.0000000000E+00   1.4844867754E+02   1.4844867754E+02   0.0000000000E+00     0.000   1.
   21   -1    0    0  501  502   0.0000000000E+00   0.0000000000E+00  -2.6313808010E+01   2.6313808010E+01   0.0000000000E+00     0.000   1.
   25    2    1    2    0    0   0.0000000000E+00   0.0000000000E+00   1.2213486953E+02   1.7476248555E+02   1.2500000000E+02  3.114E-08  -1.
3000002    2    3    0    0    0  -4.5843613318E+01  -1.1154277148E+01   5.4906303856E+00   4.8540723138E+01   1.0000000000E+01  1.611E-09  -1.
3000002    2    3    0    0    0   4.5843613318E+01   1.1154277148E+01   1.1664423914E+02   1.2622176241E+02   1.0000000000E+01  1.393E-09  -1.
3000001    1    4    0    0    0  -3.0411007396E+01  -2.6831570001E+00   2.1582591298E+00   3.0621671816E+01   1.0000000000E+00     0.000   1.
3000022   2   4   0   0   0   -1.5432605922E+01   -8.4711201482E+00   3.3323712558E+00   1.7919051323E+01   2.5000000000E-01   8.643561E-01   0.
3000001    1    5    0    0    0   3.4221191423E+01   1.2362090174E+01   8.3958684325E+01   9.1509408748E+01   1.0000000000E+00     0.000  -1.
3000022   2   5   0   0   0   1.1622421895E+01   -1.2078130252E+00   3.2685554819E+01   3.4712353664E+01   2.5000000000E-01   1.206027E+00   0.
13    1    7    0    0    0  -6.4812157059E+00  -3.5654172002E+00   1.4658614577E+00   7.5417591880E+00   1.0500000000E-01     0.000  -1.
-13    1    7    0    0    0  -8.9513902164E+00  -4.9057029480E+00   1.8665097981E+00   1.0377292135E+01   1.0500000000E-01     0.000   1.
13    1    9    0    0    0   7.1859017231E+00  -7.1951819220E-01   2.0361695492E+01   2.1604734627E+01   1.0500000000E-01     0.000   1.
-13    1    9    0    0    0   4.4365201723E+00  -4.8829483303E-01   1.2323859328E+01   1.3107619037E+01   1.0500000000E-01     0.000  -1.
</event>
<event>
 13   1  9.2978750E-05  1.2500000E+02  7.5467720E-03  1.2380620E-01
   21   -1    0    0  502  501   0.0000000000E+00   0.0000000000E+00   1.6404153663E+01   1.6404153663E+01   0.0000000000E+00     0.000  -1.
   21   -1    0    0  501  502   0.0000000000E+00   0.0000000000E+00  -2.3812566502E+02   2.3812566502E+02   0.0000000000E+00     0.000  -1.
   25    2    1    2    0    0   0.0000000000E+00   0.0000000000E+00  -2.2172151136E+02   2.5452981868E+02   1.2500000000E+02  1.166E-08  -1.
3000002    2    3    0    0    0   2.0558611498E+01   4.4213202401E+01  -1.8782912447E+02   1.9431223269E+02   1.0000000000E+01  3.871E-10   1.
3000002    2    3    0    0    0  -2.0558611498E+01  -4.4213202401E+01  -3.3892386885E+01   6.0217585987E+01   1.0000000000E+01  3.609E-09   1.
3000001    1    4    0    0    0   4.4239772041E+00   2.9821784438E+00  -1.7504485892E+01   1.8326810658E+01   1.0000000000E+00     0.000   1.
3000022   2   4   0   0   0   1.6134634294E+01   4.1231023957E+01   -1.7032463858E+02   1.7598542204E+02   2.5000000000E-01   6.599318E+00   0.
3000001    1    5    0    0    0  -1.7347673270E+00  -1.3245980866E+01  -7.2050863431E+00   1.5211137236E+01   1.0000000000E+00     0.000  -1.
3000022   2   5   0   0   0   -1.8823844171E+01   -3.0967221535E+01   -2.6687300542E+01   4.5006448751E+01   2.5000000000E-01   5.661286E-01   0.
13    1    7    0    0    0   5.1033855166E+00   1.2982821162E+01  -5.3486854505E+01   5.5276150543E+01   1.0500000000E-01     0.000  -1.
-13    1    7    0    0    0   1.1031248777E+01   2.8248202796E+01  -1.1683778408E+02   1.2070927149E+02   1.0500000000E-01     0.000   1.
13    1    9    0    0    0  -5.0819534428E+00  -8.3490563598E+00  -7.2419943197E+00   1.2165134591E+01   1.0500000000E-01     0.000   1.
-13    1    9    0    0    0  -1.3741890728E+01  -2.2618165175E+01  -1.9445306222E+01   3.2841314160E+01   1.0500000000E-01     0.000  -1.
</event>
<event>
 13   1  9.2978750E-05  1.2500000E+02  7.5467720E-03  1.2380620E-01
   21   -1    0    0  502  501   0.0000000000E+00   0.0000000000E+00   9.1460743015E+00   9.1460743015E+00   0.0000000000E+00     0.000  -1.
   21   -1    0    0  501  502   0.0000000000E+00   0.0000000000E+00  -4.2709580867E+02   4.2709580867E+02   0.0000000000E+00     0.000  -1.
   25    2    1    2    0    0   0.0000000000E+00   0.0000000000E+00  -4.1794973437E+02   4.3624188298E+02   1.2500000000E+02  1.194E-08  -1.
3000002    2    3    0    0    0  -1.8718201023E+01   5.4013602713E+01  -2.8995412152E+02   2.9570463796E+02   1.0000000000E+01  1.122E-10   1.
3000002    2    3    0    0    0   1.8718201023E+01  -5.4013602713E+01  -1.2799561285E+02   1.4053724502E+02   1.0000000000E+01  1.421E-09   1.
3000001    1    4    0    0    0  -1.8456668311E+01   4.5972948582E+01  -2.6050312076E+02   2.6517359698E+02   1.0000000000E+00     0.000  -1.
3000022   2   4   0   0   0   -2.6153271186E-01   8.0406541315E+00   -2.9451000752E+01   3.0531040984E+01   2.5000000000E-01   1.191127E+00   0.
3000001    1    5    0    0    0  -2.6630103923E-01  -7.7009740234E-01  -5.1658152954E+00   5.3244355493E+00   1.0000000000E+00     0.000  -1.
3000022   2   5   0   0   0   1.8984502062E+01   -5.3243505311E+01   -1.2282979756E+02   1.3521280947E+02   2.5000000000E-01   4.237648E+00   0.
13    1    7    0    0    0  -9.3369962091E-02   4.5166491086E+00  -1.6682215125E+01   1.7283407175E+01   1.0500000000E-01     0.000  -1.
-13    1    7    0    0    0  -1.6816274977E-01   3.5240050228E+00  -1.2768785628E+01   1.3247633808E+01   1.0500000000E-01     0.000   1.
13    1    9    0    0    0   5.7757159574E+00  -1.6138846807E+01  -3.7146487654E+01   4.0910803476E+01   1.0500000000E-01     0.000   1.
-13    1    9    0    0    0   1.3208786105E+01  -3.7104658504E+01  -8.5683309905E+01   9.4302005993E+01   1.0500000000E-01     0.000  -1.
</event>
<event>
 13   1  9.2978750E-05  1.2500000E+02  7.5467720E-03  1.2380620E-01
   21   -1    0    0  502  501   0.0000000000E+00   0.0000000000E+00   8.1529932721E+01   8.1529932721E+01   0.0000000000E+00     0.000  -1.
   21   -1    0    0  501  502   0.0000000000E+00   0.0000000000E+00  -4.7911851140E+01   4.7911851140E+01   0.0000000000E+00     0.000  -1.
   25    2    1    2    0    0   0.0000000000E+00   0.0000000000E+00   3.3618081581E+01   1.2944178386E+02   1.2500000000E+02  1.090E-08  -1.
3000002    2    3    0    0    0   3.5973016321E+01  -4.5987970228E+01   3.7449675289E+01   7.0081591650E+01   1.0000000000E+01  2.818E-10  -1.
3000002    2    3    0    0    0  -3.5973016321E+01   4.5987970228E+01  -3.8315937077E+00   5.9360192210E+01   1.0000000000E+01  2.794E-11  -1.
3000001    1    4    0    0    0   2.9132921780E+01  -3.0990619005E+01   2.4317442382E+01   4.9004934463E+01   1.0000000000E+00     0.000  -1.
3000022   2   4   0   0   0   6.8400945409E+00   -1.4997351223E+01   1.3132232906E+01   2.1076657186E+01   2.5000000000E-01   6.855231E+00   0.
3000001    1    5    0    0    0  -3.5853859772E+00   2.2237776656E+00   1.6501510377E+00   4.6393079396E+00   1.0000000000E+00     0.000   1.
3000022   2   5   0   0   0   -3.2387630344E+01   4.3764192562E+01   -5.4817447454E+00   5.4720884271E+01   2.5000000000E-01   2.548871E+01   0.
13    1    7    0    0    0   5.1242432787E+00  -1.1165381843E+01   9.7870126777E+00   1.5707331506E+01   1.0500000000E-01     0.000  -1.
-13    1    7    0    0    0   1.7158512622E+00  -3.8319693802E+00   3.3452202286E+00   5.3693256805E+00   1.0500000000E-01     0.000   1.
13    1    9    0    0    0  -1.3261388619E+01   1.7930578435E+01  -2.3093815701E+00   2.2421292098E+01   1.0500000000E-01     0.000   1.
-13    1    9    0    0    0  -1.9126241725E+01   2.5833614128E+01  -3.1723631753E+00   3.2299592173E+01   1.0500000000E-01     0.000  -1.
</event>
<event>
 13   1  9.2978750E-05  1.2500000E+02  7.5467720E-03  1.2380620E-01
   21   -1    0    0  502  501   0.0000000000E+00   0.0000000000E+00   1.2832778313E+02   1.2832778313E+02   0.0000000000E+00     0.000  -1.
   21   -1    0    0  501  502   0.0000000000E+00   0.0000000000E+00  -3.0439628153E+01   3.0439628153E+01   0.0000000000E+00     0.000  -1.
   25    2    1    2    0    0   0.0000000000E+00   0.0000000000E+00   9.7888154973E+01   1.5876741128E+02   1.2500000000E+02  6.291E-09  -1.
3000002    2    3    0    0    0   5.8970667489E+01   2.0235797039E+00   7.1828290305E+01   9.3492982555E+01   1.0000000000E+01  3.643E-10  -1.
3000002    2    3    0    0    0  -5.8970667489E+01  -2.0235797039E+00   2.6059864668E+01   6.5274428725E+01   1.0000000000E+01  8.064E-10  -1.
3000001    1    4    0    0    0   5.7758510742E+01   4.3057458661E-01   6.8571588769E+01   8.9662108742E+01   1.0000000000E+00     0.000  -1.
3000022   2   4   0   0   0   1.2121567465E+00   1.5930051173E+00   3.2567015355E+00   3.8308738133E+00   2.5000000000E-01   6.074271E+00   0.
3000001    1    5    0    0    0  -4.1905955680E+01  -4.5970550374E+00   1.4913870503E+01   4.4728800228E+01   1.0000000000E+00     0.000   1.
3000022   2   5   0   0   0   -1.7064711809E+01   2.5734753335E+00   1.1145994166E+01   2.0545628497E+01   2.5000000000E-01   3.239864E+00   0.
13    1    7    0    0    0   7.4398754828E-01   1.0546972079E+00   2.1555679839E+00   2.5146375496E+00   1.0500000000E-01     0.000   1.
-13    1    7    0    0    0   4.6816919818E-01   5.3830790937E-01   1.1011335516E+00   1.3162362637E+00   1.0500000000E-01     0.000  -1.
13    1    9    0    0    0  -6.4659222279E+00   9.3101275383E-01   4.2695025986E+00   7.8047813835E+00   1.0500000000E-01     0.000   1.
-13    1    9    0    0    0  -1.0598789581E+01   1.6424625797E+00   6.8764915670E+00   1.2740847114E+01   1.0500000000E-01     0.000  -1.
</event>
<event>
 13   1  9.2978750E-05  1.2500000E+02  7.5467720E-03  1.2380620E-01
   21   -1    0    0  502  501   0.0000000000E+00   0.0000000000E+00   1.9369800481E+02   1.9369800481E+02   0.0000000000E+00     0.000   1.
   21   -1    0    0  501  502   0.0000000000E+00   0.0000000000E+00  -2.0166702305E+01   2.0166702305E+01   0.0000000000E+00     0.000   1.
   25    2    1    2    0    0   0.0000000000E+00   0.0000000000E+00   1.7353130250E+02   2.1386470711E+02   1.2500000000E+02  9.327E-08  -1.
3000002    2    3    0    0    0   4.0197620069E+01   4.2041688718E+01   1.2194977956E+02   1.3548099861E+02   1.0000000000E+01  6.558E-10   1.
3000002    2    3    0    0    0  -4.0197620069E+01  -4.2041688718E+01   5.1581522940E+01   7.8383708500E+01   1.0000000000E+01  1.118E-09   1.
3000001    1    4    0    0    0   2.7517134412E+01   2.3440033752E+01   8.2105433152E+01   8.9715829270E+01   1.0000000000E+00     0.000   1.
3000022   2   4   0   0   0   1.2680485657E+01   1.8601654967E+01   3.9844346408E+01   4.5765169340E+01   2.5000000000E-01   2.446456E+00   0.
3000001    1    5    0    0    0  -3.7775361861E+01  -3.5040412569E+01   4.6339351316E+01   6.9304718145E+01   1.0000000000E+00     0.000  -1.
3000022   2   5   0   0   0   -2.4222582073E+00   -7.0012761489E+00   5.2421716239E+00   9.0789903552E+00   2.5000000000E-01   4.917977E+00   0.
13    1    7    0    0    0   5.2039739999E+00   7.5370670116E+00   1.6143809212E+01   1.8561312599E+01   1.0500000000E-01     0.000   1.
-13    1    7    0    0    0   7.4765116571E+00   1.1064587955E+01   2.3700537196E+01   2.7203856741E+01   1.0500000000E-01     0.000  -1.
13    1    9    0    0    0  -1.4192307715E+00  -3.9717520496E+00   3.0448852988E+00   5.2030166066E+00   1.0500000000E-01     0.000  -1.
-13    1    9    0    0    0  -1.0030274358E+00  -3.0295240993E+00   2.1972863252E+00   3.8759737486E+00   1.0500000000E-01     0.000   1.
</event>
<event>
 13   1  9.2978750E-05  1.2500000E+02  7.5467720E-03  1.2380620E-01
   21   -1    0    0  502  501   0.0000000000E+00   0.0000000000E+00   7.5547813986E+01   7.5547813986E+01   0.0000000000E+00     0.000  -1.
   21   -1    0    0  501  502   0.0000000000E+00   0.0000000000E+00  -5.1705665511E+01   5.1705665511E+01   0.0000000000E+00     0.000  -1.
   25    2    1    2    0    0   0.0000000000E+00   0.0000000000E+00   2.3842148475E+01   1.2725347950E+02   1.2500000000E+02  1.250E-08  -1.
3000002    2    3    0    0    0  -5.9325523815E+01   1.1410638148E+01   2.4657801151E+01   6.6013086554E+01   1.0000000000E+01  2.208E-09  -1.
3000002    2    3    0    0    0   5.9325523815E+01  -1.1410638148E+01  -8.1565267633E-01   6.1240392946E+01   1.0000000000E+01  1.018E-09  -1.
3000001    1    4    0    0    0  -6.2711902228E+00  -1.5153640021E+00   3.8289803983E+00   7.5687017222E+00   1.0000000000E+00     0.000  -1.
3000022   2   4   0   0   0   -5.3054333592E+01   1.2926002150E+01   2.0828820753E+01   5.8444384832E+01   2.5000000000E-01   1.024519E+00   0.
3000001    1    5    0    0    0   2.9054415649E+01  -1.8931909151E+00   2.9616685940E+00   2.9283352291E+01   1.0000000000E+00     0.000   1.
3000022   2   5   0   0   0   3.0271108166E+01   -9.5174472325E+00   -3.7773212703E+00   3.1957040655E+01   2.5000000000E-01   6.952820E+00   0.
13    1    7    0    0    0  -1.5223552152E+01   3.7052050845E+00   6.0211831254E+00   1.6785432853E+01   1.0500000000E-01     0.000  -1.
-13    1    7    0    0    0  -3.7830781440E+01   9.2207970652E+00   1.4807637628E+01   4.1658951979E+01   1.0500000000E-01     0.000   1.
13    1    9    0    0    0   1.9248330447E+01  -6.0450901272E+00  -2.3428175974E+00   2.0311109249E+01   1.0500000000E-01     0.000   1.
-13    1    9    0    0    0   1.1022777720E+01  -3.4723571053E+00  -1.4345036730E+00   1.1645931406E+01   1.0500000000E-01     0.000  -1.
</event>
<event>
 13   1  9.2978750E-05  1.2500000E+02  7.5467720E-03  1.2380620E-01
   21   -1    0    0  502  501   0.0000000000E+00   0.0000000000E+00   2.5753336388E+01   2.5753336388E+01   0.0000000000E+00     0.000  -1.
   21   -1    0    0  501  502   0.0000000000E+00   0.0000000000E+00  -1.5167937626E+02   1.5167937626E+02   0.0000000000E+00     0.000  -1.
   25    2    1    2    0    0   0.0000000000E+00   0.0000000000E+00  -1.2592603988E+02   1.7743271265E+02   1.2500000000E+02  8.947E-08  -1.
3000002    2    3    0    0    0  -4.6507067375E+01  -3.8334133954E+01  -4.4247813981E+01   7.5433959089E+01   1.0000000000E+01  8.902E-10   1.
3000002    2    3    0    0    0   4.6507067375E+01   3.8334133954E+01  -8.1678225899E+01   1.0199875356E+02   1.0000000000E+01  7.399E-10   1.
3000001    1    4    0    0    0  -8.5088835365E+00  -1.1830067713E+01  -8.3507518845E+00   1.6825179291E+01   1.0000000000E+00     0.000   1.
3000022   2   4   0   0   0   -3.7998183838E+01   -2.6504066241E+01   -3.5897062096E+01   5.8608779798E+01   2.5000000000E-01   1.602371E+01   0.
3000001    1    5    0    0    0   3.3988542062E+01   2.9858384937E+01  -5.3945568322E+01   7.0412133074E+01   1.0000000000E+00     0.000   1.
3000022   2   5   0   0   0   1.2518525313E+01   8.4757490177E+00   -2.7732657578E+01   3.1586620486E+01   2.5000000000E-01   1.094077E+01   0.
13    1    7    0    0    0  -1.1402240693E+01  -8.0048710528E+00  -1.0817480315E+01   1.7638536186E+01   1.0500000000E-01     0.000   1.
-13    1    7    0    0    0  -2.6595943145E+01  -1.8499195188E+01  -2.5079581781E+01   4.0970243613E+01   1.0500000000E-01     0.000  -1.
13    1    9    0    0    0   5.3349063634E+00   3.6879639932E+00  -1.1859167820E+01   1.3517144325E+01   1.0500000000E-01     0.000   1.
-13    1    9    0    0    0   7.1836189494E+00   4.7877850245E+00  -1.5873489758E+01   1.8069476161E+01   1.0500000000E-01     0.000  -1.
</event>
<event>
 13   1  9.2978750E-05  1.2500000E+02  7.5467720E-03  1.2380620E-01
   21   -1    0    0  502  501   0.0000000000E+00   0.0000000000E+00   1.8059909517E+02   1.8059909517E+02   0.0000000000E+00     0.000   1.
   21   -1    0    0  501  502   0.0000000000E+00   0.0000000000E+00  -2.1629399618E+01   2.1629399618E+01   0.0000000000E+00     0.000   1.
   25    2    1    2    0    0   0.0000000000E+00   0.0000000000E+00   1.5896969555E+02   2.0222849479E+02   1.2500000000E+02  2.912E-08  -1.
3000002    2    3    0    0    0   1.5754663526E+01  -5.9527797228E+01   7.3328181242E+01   9.6274556503E+01   1.0000000000E+01  1.013E-10   1.
3000002    2    3    0    0    0  -1.5754663526E+01   5.9527797228E+01   8.5641514308E+01   1.0595393829E+02   1.0000000000E+01  6.878E-10   1.
3000001    1    4    0    0    0  -7.6708452944E-01  -4.0798192020E+00   3.0673620049E+00   5.2575710233E+00   1.0000000000E+00     0.000  -1.
3000022   2   4   0   0   0   1.6521748055E+01   -5.5447978026E+01   7.0260819237E+01   9.1016985480E+01   2.5000000000E-01   8.102410E+00   0.
3000001    1    5    0    0    0  -8.7635928381E-01   2.1291008221E+01   3.0619274751E+01   3.7317757475E+01   1.0000000000E+00     0.000   1.
3000022   2   5   0   0   0   -1.4878304242E+01   3.8236789007E+01   5.5022239557E+01   6.8636180812E+01   2.5000000000E-01   5.203170E+00   0.
13    1    7    0    0    0   1.0530407367E+01  -3.5147202932E+01   4.4588877636E+01   5.7744215183E+01   1.0500000000E-01     0.000   1.
-13    1    7    0    0    0   5.9913406875E+00  -2.0300775094E+01   2.5671941601E+01   3.3272770297E+01   1.0500000000E-01     0.000  -1.
13    1    9    0    0    0  -8.1213680117E+00   2.0822490469E+01   2.9864652350E+01   3.7302026925E+01   1.0500000000E-01     0.000  -1.
-13    1    9    0    0    0  -6.7569362300E+00   1.7414298538E+01   2.5157587206E+01   3.1334153887E+01   1.0500000000E-01     0.000   1.
</event>
<event>
 13   1  9.2978750E-05  1.2500000E+02  7.5467720E-03  1.2380620E-01
   21   -1    0    0  502  501   0.0000000000E+00   0.0000000000E+00   7.3284186313E+01   7.3284186313E+01   0.0000000000E+00     0.000  -1.
   21   -1    0    0  501  502   0.0000000000E+00   0.0000000000E+00  -5.3302768258E+01   5.3302768258E+01   0.0000000000E+00     0.000  -1.
   25    2    1    2    0    0   0.0000000000E+00   0.0000000000E+00   1.9981418056E+01   1.2658695457E+02   1.2500000000E+02  7.440E-09  -1.
3000002    2    3    0    0    0  -2.9145849216E+01   2.4021872454E+01   5.9392397020E+01   7.1091403887E+01   1.0000000000E+01  7.590E-10   1.
3000002    2    3    0    0    0   2.9145849216E+01  -2.4021872454E+01  -3.9410978964E+01   5.5495550683E+01   1.0000000000E+01  2.484E-10   1.
3000001    1    4    0    0    0  -4.7276592334E+00   4.9795560503E+00   5.1831278858E+00   8.6609211384E+00   1.0000000000E+00     0.000   1.
3000022   2   4   0   0   0   -2.4418189982E+01   1.9042316404E+01   5.4209269135E+01   6.2430482748E+01   2.5000000000E-01   1.691223E+00   0.
3000001    1    5    0    0    0   4.5599167626E+00  -5.8425031590E+00  -1.3423559358E+01   1.5366184624E+01   1.0000000000E+00     0.000   1.
3000022   2   5   0   0   0   2.4585932453E+01   -1.8179369295E+01   -2.5987419606E+01   4.0129366060E+01   2.5000000000E-01   9.890711E-01   0.
13    1    7    0    0    0  -1.2328302271E+01   9.6999213497E+00   2.7470539355E+01   3.1634112419E+01   1.0500000000E-01     0.000  -1.
-13    1    7    0    0    0  -1.2089887712E+01   9.3423950543E+00   2.6738729780E+01   3.0796370329E+01   1.0500000000E-01     0.000   1.
13    1    9    0    0    0   6.8840070960E+00  -5.0687414405E+00  -7.3126712249E+00   1.1250239061E+01   1.0500000000E-01     0.000   1.
-13    1    9    0    0    0   1.7701925357E+01  -1.3110627855E+01  -1.8674748381E+01   2.8879126999E+01   1.0500000000E-01     0.000  -1.
</event>
<event>
 13   1  9.2978750E-05  1.2500000E+02  7.5467720E-03  1.2380620E-01
   21   -1    0    0  502  501   0.0000000000E+00   0.0000000000E+00   1.0996253532E+02   1.0996253532E+02   0.0000000000E+00     0.000  -1.
   21   -1    0    0  501  502   0.0000000000E+00   0.0000000000E+00  -3.5523462501E+01   3.5523462501E+01   0.0000000000E+00     0.000  -1.
   25    2    1    2    0    0   0.0000000000E+00   0.0000000000E+00   7.4439072820E+01   1.4548599782E+02   1.2500000000E+02  4.071E-08  -1.
3000002    2    3    0    0    0  -4.0120732018E+01   4.1693217099E+01   1.2304380436E+01   5.9994960352E+01   1.0000000000E+01  8.189E-10  -1.
3000002    2    3    0    0    0   4.0120732018E+01  -4.1693217099E+01   6.2134692384E+01   8.5491037468E+01   1.0000000000E+01  1.808E-09  -1.
3000001    1    4    0    0    0  -1.8969017507E+01   1.6194143266E+01   9.7507645867E-01   2.4980485892E+01   1.0000000000E+00     0.000   1.
3000022   2   4   0   0   0   -2.1151714511E+01   2.5499073833E+01   1.1329303977E+01   3.5014474460E+01   2.5000000000E-01   2.713264E+00   0.
3000001    1    5    0    0    0   2.8143544923E+01  -2.3836623363E+01   4.3478763874E+01   5.7023211433E+01   1.0000000000E+00     0.000  -1.
3000022   2   5   0   0   0   1.1977187095E+01   -1.7856593737E+01   1.8655928510E+01   2.8467826035E+01   2.5000000000E-01   8.771184E-01   0.
13    1    7    0    0    0  -1.5949688720E+01   1.9199203221E+01   8.5184947390E+00   2.6373808072E+01   1.0500000000E-01     0.000   1.
-13    1    7    0    0    0  -5.2020257908E+00   6.2998706120E+00   2.8108092385E+00   8.6406663881E+00   1.0500000000E-01     0.000  -1.
13    1    9    0    0    0   5.2659585144E+00  -7.7784944905E+00   8.0812529287E+00   1.2391649184E+01   1.0500000000E-01     0.000  -1.
-13    1    9    0    0    0   6.7112285807E+00  -1.0078099246E+01   1.0574675581E+01   1.6076176850E+01   1.0500000000E-01     0.000   1.
</event>
<event>
 13   1  9.2978750E-05  1.2500000E+02  7.5467720E-03  1.2380620E-01
   21   -1    0    0  502  501   0.0000000000E+00   0.0000000000E+00   1.3684522251E+01   1.3684522251E+01   0.0000000000E+00     0.000   1.
   21   -1    0    0  501  502   0.0000000000E+00   0.0000000000E+00  -2.8545022824E+02   2.8545022824E+02   0.0000000000E+00     0.000   1.
   25    2    1    2    0    0   0.0000000000E+00   0.0000000000E+00  -2.7176570599E+02   2.9913475049E+02   1.2500000000E+02  2.406E-08  -1.
3000002    2    3    0    0    0  -6.0858131692E+00   5.1863797267E+01  -5.7261611725E+01   7.8139508357E+01   1.0000000000E+01  2.966E-10  -1.
3000002    2    3    0    0    0   6.0858131692E+00  -5.1863797267E+01  -2.1450409427E+02   2.2099524213E+02   1.0000000000E+01  1.596E-09  -1.
3000001    1    4    0    0    0  -1.1297675268E+00   3.7062902618E+01  -4.4810898517E+01   5.8171743579E+01   1.0000000000E+00     0.000   1.
3000022   2   4   0   0   0   -4.9560456424E+00   1.4800894650E+01   -1.2450713208E+01   1.9967764778E+01   2.5000000000E-01   4.165341E+00   0.
3000001    1    5    0    0    0   5.3264899308E+00  -1.8375539923E+01  -6.3864759535E+01   6.6676378673E+01   1.0000000000E+00     0.000   1.
3000022   2   5   0   0   0   7.5932323841E-01   -3.3488257345E+01   -1.5063933473E+02   1.5431886346E+02   2.5000000000E-01   3.808820E+00   0.
13    1    7    0    0    0  -3.2272453960E+00   9.4562214597E+00  -7.9612379050E+00   1.2776054599E+01   1.0500000000E-01     0.000   1.
-13    1    7    0    0    0  -1.7288002464E+00   5.3446731903E+00  -4.4894753028E+00   7.1917101789E+00   1.0500000000E-01     0.000  -1.
13    1    9    0    0    0   1.9930408810E-01  -1.0252382624E+01  -4.5959917136E+01   4.7090084728E+01   1.0500000000E-01     0.000  -1.
-13    1    9    0    0    0   5.6001915031E-01  -2.3235874720E+01  -1.0467941759E+02   1.0722877873E+02   1.0500000000E-01     0.000   1.
</event>
<event>
 13   1  9.2978750E-05  1.2500000E+02  7.5467720E-03  1.2380620E-01
   21   -1    0    0  502  501   0.0000000000E+00   0.0000000000E+00   1.4142395738E+02   1.4142395738E+02   0.0000000000E+00     0.000  -1.
   21   -1    0    0  501  502   0.0000000000E+00   0.0000000000E+00  -2.7620850613E+01   2.7620850613E+01   0.0000000000E+00     0.000  -1.
   25    2    1    2    0    0   0.0000000000E+00   0.0000000000E+00   1.1380310677E+02   1.6904480800E+02   1.2500000000E+02  7.887E-08  -1.
3000002    2    3    0    0    0  -2.2476576264E+01   5.5404362733E+01   3.6329246808E+01   7.0672866534E+01   1.0000000000E+01  7.189E-10  -1.
3000002    2    3    0    0    0   2.2476576264E+01  -5.5404362733E+01   7.7473859962E+01   9.8371941466E+01   1.0000000000E+01  7.593E-10  -1.
3000001    1    4    0    0    0  -1.5316707952E+01   4.7219654726E+01   2.8274679514E+01   5.7138033188E+01   1.0000000000E+00     0.000  -1.
3000022   2   4   0   0   0   -7.1598683121E+00   8.1847080076E+00   8.0545672940E+00   1.3534833346E+01   2.5000000000E-01   7.175797E-01   0.
3000001    1    5    0    0    0   9.4398344340E+00  -2.6189620697E+01   4.3929600241E+01   5.2017463257E+01   1.0000000000E+00     0.000  -1.
3000022   2   5   0   0   0   1.3036741830E+01   -2.9214742037E+01   3.3544259721E+01   4.6354478209E+01   2.5000000000E-01   5.763537E-01   0.
13    1    7    0    0    0  -2.1866779954E+00   2.5456111086E+00   2.5328489067E+00   4.2057157721E+00   1.0500000000E-01     0.000   1.
-13    1    7    0    0    0  -4.9731903167E+00   5.6390968990E+00   5.5217183873E+00   9.3291175741E+00   1.0500000000E-01     0.000  -1.
13    1    9    0    0    0   9.2644879973E+00  -2.0785068771E+01   2.3800366623E+01   3.2928988718E+01   1.0500000000E-01     0.000   1.
-13    1    9    0    0    0   3.7722538329E+00  -8.4296732662E+00   9.7438930985E+00   1.3425489491E+01   1.0500000000E-01     0.000  -1.
</event>
<event>
 13   1  9.2978750E-05  1.2500000E+02  7.5467720E-03  1.2380620E-01
   21   -1    0    0  502  501   0.0000000000E+00   0.0000000000E+00   2.7740833970E+02   2.7740833970E+02   0.0000000000E+00     0.000  -1.
   21   -1    0    0  501  502   0.0000000000E+00   0.0000000000E+00  -1.4081227710E+01   1.4081227710E+01   0.0000000000E+00     0.000  -1.
   25    2    1    2    0    0   0.0000000000E+00   0.0000000000E+00   2.6332711199E+02   2.9148956741E+02   1.2500000000E+02  9.222E-08  -1.
3000002    2    3    0    0    0   5.3680352615E+01   1.0503765332E+01   1.9820865288E+02   2.0586058248E+02   1.0000000000E+01  5.435E-10   1.
3000002    2    3    0    0    0  -5.3680352615E+01  -1.0503765332E+01   6.5118459110E+01   8.5628984929E+01   1.0000000000E+01  2.875E-10   1.
3000001    1    4    0    0    0   3.5248424440E+01   8.0623012214E+00   1.1307370453E+02   1.1871863704E+02   1.0000000000E+00     0.000   1.
3000022   2   4   0   0   0   1.8431928175E+01   2.4414641106E+00   8.5134948354E+01   8.7141945436E+01   2.5000000000E-01   1.829875E+00   0.
3000001    1    5    0    0    0  -1.4429394816E+01  -6.4775453724E+00   1.4794526097E+01   2.1680498870E+01   1.0000000000E+00     0.000  -1.
3000022   2   5   0   0   0   -3.9250957799E+01   -4.0262199597E+00   5.0323933013E+01   6.3948486059E+01   2.5000000000E-01   1.668972E-01   0.
13    1    7    0    0    0   4.9452995273E+00   6.6358596947E-01   2.3011136405E+01   2.3546119795E+01   1.0500000000E-01     0.000   1.
-13    1    7    0    0    0   1.3486628648E+01   1.7778781412E+00   6.2123811949E+01   6.3595825642E+01   1.0500000000E-01     0.000  -1.
13    1    9    0    0    0  -1.7964323055E+01  -1.9096503744E+00   2.3053028538E+01   2.9288509985E+01   1.0500000000E-01     0.000   1.
-13    1    9    0    0    0  -2.1286634744E+01  -2.1165695853E+00   2.7270904475E+01   3.4659976074E+01   1.0500000000E-01     0.000  -1.
</event>
<event>
 13   1  9.2978750E-05  1.2500000E+02  7.5467720E-03  1.2380620E-01
   21   -1    0    0  502  501   0.0000000000E+00   0.0000000000E+00   7.8108149306E+01   7.8108149306E+01   0.0000000000E+00     0.000   1.
   21   -1    0    0  501  502   0.0000000000E+00   0.0000000000E+00  -5.0010786771E+01   5.0010786771E+01   0.0000000000E+00     0.000   1.
   25    2    1    2    0    0   0.0000000000E+00   0.0000000000E+00   2.8097362536E+01   1.2811893608E+02   1.2500000000E+02  3.129E-09  -1.
3000002    2    3    0    0    0   4.0066957031E+01  -3.8719336528E+01  -1.3101932211E+01   5.8105152048E+01   1.0000000000E+01  2.304E-10  -1.
3000002    2    3    0    0    0  -4.0066957031E+01   3.8719336528E+01   4.1199294747E+01   7.0013784032E+01   1.0000000000E+01  6.561E-10  -1.
3000001    1    4    0    0    0   1.7392468350E-01  -1.7169304345E+00  -1.4324572088E+00   2.4556126664E+00   1.0000000000E+00     0.000  -1.
3000022   2   4   0   0   0   3.9893032347E+01   -3.7002406093E+01   -1.1669475002E+01   5.5649539381E+01   2.5000000000E-01   3.594736E+00   0.
3000001    1    5    0    0    0  -5.1820441699E+00   3.7850437172E+00   8.8956605212E+00   1.1014214172E+01   1.0000000000E+00     0.000   1.
3000022   2   5   0   0   0   -3.4884912861E+01   3.4934292810E+01   3.2303634226E+01   5.8999569860E+01   2.5000000000E-01   5.038155E+00   0.
13    1    7    0    0    0   2.6895583065E+01  -2.4997588508E+01  -7.9117222528E+00   3.7561392328E+01   1.0500000000E-01     0.000  -1.
-13    1    7    0    0    0   1.2997449283E+01  -1.2004817586E+01  -3.7577527493E+00   1.8088147054E+01   1.0500000000E-01     0.000   1.
13    1    9    0    0    0  -2.4616027394E+01   2.4712923032E+01   2.2827254259E+01   4.1686591747E+01   1.0500000000E-01     0.000   1.
-13    1    9    0    0    0  -1.0268885467E+01   1.0221369778E+01   9.4763799666E+00   1.7312978113E+01   1.0500000000E-01     0.000  -1.
</event>
<event>
 13   1  9.2978750E-05  1.2500000E+02  7.5467720E-03  1.2380620E-01
   21   -1    0    0  502  501   0.0000000000E+00   0.0000000000E+00   2.6470509178E+01   2.6470509178E+01   0.0000000000E+00     0.000  -1.
   21   -1    0    0  501  502   0.0000000000E+00   0.0000000000E+00  -1.4756988518E+02   1.4756988518E+02   0.0000000000E+00     0.000  -1.
   25    2    1    2    0    0   0.0000000000E+00   0.0000000000E+00  -1.2109937600E+02   1.7404039435E+02   1.2500000000E+02  6.825E-08  -1.
3000002    2    3    0    0    0   1.4022203902E+01   4.8608383183E+01  -1.0971373807E+02   1.2122912785E+02   1.0000000000E+01  4.253E-10   1.
3000002    2    3    0    0    0  -1.4022203902E+01  -4.8608383183E+01  -1.1385637925E+01   5.2811266496E+01   1.0000000000E+01  1.361E-10   1.
3000001    1    4    0    0    0   1.1462824747E+01   4.5727998152E+01  -1.0523106172E+02   1.1531271620E+02   1.0000000000E+00     0.000   1.
3000022   2   4   0   0   0   2.5593791555E+00   2.8803850312E+00   -4.4826763552E+00   5.9164116570E+00   2.5000000000E-01   1.096631E+01   0.
3000001    1    5    0    0    0  -2.4257734016E+00  -2.0525623554E+00  -2.1117208367E+00   3.9442050797E+00   1.0000000000E+00     0.000   1.
3000022   2   5   0   0   0   -1.1596430500E+01   -4.6555820828E+01   -9.2739170887E+00   4.8867061416E+01   2.5000000000E-01   1.497408E+00   0.
13    1    7    0    0    0   1.1132270778E+00   1.3533565767E+00  -2.0322468358E+00   2.6854982316E+00   1.0500000000E-01     0.000   1.
-13    1    7    0    0    0   1.4461520777E+00   1.5270284545E+00  -2.4504295195E+00   3.2309134254E+00   1.0500000000E-01     0.000  -1.
13    1    9    0    0    0  -3.0835392929E+00  -1.2296321187E+01  -2.4230735480E+00   1.2906976397E+01   1.0500000000E-01     0.000   1.
-13    1    9    0    0    0  -8.5128912075E+00  -3.4259499641E+01  -6.8508435407E+00   3.5960085019E+01   1.0500000000E-01     0.000  -1.
</event>
<event>
 13   1  9.2978750E-05  1.2500000E+02  7.5467720E-03  1.2380620E-01
   21   -1    0    0  502  501   0.0000000000E+00   0.0000000000E+00   2.6279324500E+01   2.6279324500E+01   0.0000000000E+00     0.000   1.
   21   -1    0    0  501  502   0.0000000000E+00   0.0000000000E+00  -1.4864347065E+02   1.4864347065E+02   0.0000000000E+00     0.000   1.
   25    2    1    2    0    0   0.0000000000E+00   0.0000000000E+00  -1.2236414615E+02   1.7492279515E+02   1.2500000000E+02  1.319E-09  -1.
3000002    2    3    0    0    0  -6.1072365818E+01  -7.2675441430E+00  -5.4384050507E+01   8.2705961176E+01   1.0000000000E+01  1.069E-10  -1.
3000002    2    3    0    0    0   6.1072365818E+01   7.2675441430E+00  -6.7980095643E+01   9.2216833974E+01   1.0000000000E+01  9.492E-11  -1.
3000001    1    4    0    0    0  -5.5790963337E+01  -7.7420790364E+00  -4.5754901557E+01   7.2574667718E+01   1.0000000000E+00     0.000  -1.
3000022   2   4   0   0   0   -5.2814024809E+00   4.7453489336E-01   -8.6291489495E+00   1.0131293458E+01   2.5000000000E-01   5.786743E+00   0.
3000001    1    5    0    0    0   5.1711093197E+01   6.4145877214E+00  -5.1663856601E+01   7.3384863385E+01   1.0000000000E+00     0.000  -1.
3000022   2   5   0   0   0   9.3612726215E+00   8.5295642158E-01   -1.6316239043E+01   1.8831970589E+01   2.5000000000E-01   2.019313E+00   0.
13    1    7    0    0    0  -1.7547163326E+00   2.0912434976E-01  -2.8483594522E+00   3.3536456239E+00   1.0500000000E-01     0.000  -1.
-13    1    7    0    0    0  -3.5266861483E+00   2.6541054360E-01  -5.7807894973E+00   6.7776478337E+00   1.0500000000E-01     0.000   1.
13    1    9    0    0    0   4.2952419528E+00   3.8094930285E-01  -7.6178644268E+00   8.7542623464E+00   1.0500000000E-01     0.000  -1.
-13    1    9    0    0    0   5.0660306686E+00   4.7200711874E-01  -8.6983746159E+00   1.0077708242E+01   1.0500000000E-01     0.000   1.
</event>
<event>
 13   1  9.2978750E-05  1.2500000E+02  7.5467720E-03  1.2380620E-01
   21   -1    0    0  502  501   0.0000000000E+00   0.0000000000E+00   9.2719143111E+00   9.2719143111E+00   0.0000000000E+00     0.000  -1.
   21   -1    0    0  501  502   0.0000000000E+00   0.0000000000E+00  -4.2129919119E+02   4.2129919119E+02   0.0000000000E+00     0.000  -1.
   25    2    1    2    0    0   0.0000000000E+00   0.0000000000E+00  -4.1202727687E+02   4.3057110550E+02   1.2500000000E+02  2.123E-07  -1.
3000002    2    3    0    0    0  -6.1262370988E+01  -7.0816140689E+00  -2.0002499543E+02   2.0955482852E+02   1.0000000000E+01  4.228E-09  -1.
3000002    2    3    0    0    0   6.1262370988E+01   7.0816140689E+00  -2.1200228144E+02   2.2101627698E+02   1.0000000000E+01  5.985E-11  -1.
3000001    1    4    0    0    0  -4.6255393474E+01  -6.7736463725E+00  -1.3675055959E+02   1.4452390550E+02   1.0000000000E+00     0.000  -1.
3000022   2   4   0   0   0   -1.5006977514E+01   -3.0796769642E-01   -6.3274435839E+01   6.5030923021E+01   2.5000000000E-01   1.787469E-02   0.
3000001    1    5    0    0    0   6.1407786355E+01   6.5100333707E+00  -2.1069963554E+02   2.1956464464E+02   1.0000000000E+00     0.000  -1.
3000022   2   5   0   0   0   -1.4541536734E-01   5.7158069813E-01   -1.3026458962E+00   1.4516323413E+00   2.5000000000E-01   2.791515E+00   0.
13    1    7    0    0    0  -4.5465895104E+00  -4.7527565944E-02  -1.9207738406E+01   1.9738844310E+01   1.0500000000E-01     0.000   1.
-13    1    7    0    0    0  -1.0460388003E+01  -2.6044013047E-01  -4.4066697434E+01   4.5292078711E+01   1.0500000000E-01     0.000  -1.
13    1    9    0    0    0  -2.5054917699E-02   2.5595321038E-01  -4.5440701676E-01   5.3258852004E-01   1.0500000000E-01     0.000  -1.
-13    1    9    0    0    0  -1.2036044965E-01   3.1562748775E-01  -8.4823887944E-01   9.1904382129E-01   1.0500000000E-01     0.000   1.
</event>
<event>
 13   1  9.2978750E-05  1.2500000E+02  7.5467720E-03  1.2380620E-01
   21   -1    0    0  502  501   0.0000000000E+00   0.0000000000E+00   5.0795442032E+01   5.0795442032E+01   0.0000000000E+00     0.000  -1.
   21   -1    0    0  501  502   0.0000000000E+00   0.0000000000E+00  -7.6901584940E+01   7.6901584940E+01   0.0000000000E+00     0.000  -1.
   25    2    1    2    0    0   0.0000000000E+00   0.0000000000E+00  -2.6106142908E+01   1.2769702697E+02   1.2500000000E+02  4.058E-08  -1.
3000002    2    3    0    0    0  -2.3755829183E+01   5.6635483806E+01  -1.9038893860E+01   6.5072243895E+01   1.0000000000E+01  6.026E-10   1.
3000002    2    3    0    0    0   2.3755829183E+01  -5.6635483806E+01  -7.0672490476E+00   6.2624783075E+01   1.0000000000E+01  7.350E-10   1.
3000001    1    4    0    0    0  -2.0169846740E+01   5.4081624077E+01  -1.6783014532E+01   6.0119167968E+01   1.0000000000E+00     0.000   1.
3000022   2   4   0   0   0   -3.5859824433E+00   2.5538597286E+00   -2.2558793287E+00   4.9530759274E+00   2.5000000000E-01   1.081826E+01   0.
3000001    1    5    0    0    0   2.0766737990E+01  -4.6793753801E+01  -9.4363928828E+00   5.2066863859E+01   1.0000000000E+00     0.000   1.
3000022   2   5   0   0   0   2.9890911934E+00   -9.8417300051E+00   2.3691438353E+00   1.0557919216E+01   2.5000000000E-01   6.136061E+00   0.
13    1    7    0    0    0  -1.2392111519E+00   9.2939346459E-01  -7.4725595773E-01   1.7230301673E+00   1.0500000000E-01     0.000   1.
-13    1    7    0    0    0  -2.3467712914E+00   1.6244662640E+00  -1.5086233710E+00   3.2300457602E+00   1.0500000000E-01     0.000  -1.
13    1    9    0    0    0   1.9282948632E+00  -6.4987778712E+00   1.5267189946E+00   6.9494122620E+00   1.0500000000E-01     0.000   1.
-13    1    9    0    0    0   1.0607963301E+00  -3.3429521339E+00   8.4242484069E-01   3.6085069538E+00   1.0500000000E-01     0.000  -1.
</event>
<event>
 13   1  9.2978750E-05  1.2500000E+02  7.5467720E-03  1.2380620E-01
   21   -1    0    0  502  501   0.0000000000E+00   0.0000000000E+00   2.1275294607E+02   2.1275294607E+02   0.0000000000E+00     0.000   1.
   21   -1    0    0  501  502   0.0000000000E+00   0.0000000000E+00  -1.8360497808E+01   1.8360497808E+01   0.0000000000E+00     0.000   1.
   25    2    1    2    0    0   0.0000000000E+00   0.0000000000E+00   1.9439244826E+02   2.3111344388E+02   1.2500000000E+02  1.805E-08  -1.
3000002    2    3    0    0    0  -3.9445967609E+01   4.1143246269E+01   1.4085154792E+02   1.5227576835E+02   1.0000000000E+01  5.691E-10   1.
3000002    2    3    0    0    0   3.9445967609E+01  -4.1143246269E+01   5.3540900339E+01   7.8837675532E+01   1.0000000000E+01  2.130E-10   1.
3000001    1    4    0    0    0  -1.9359315989E+01   1.7548035566E+01   5.2578625155E+01   5.8721618599E+01   1.0000000000E+00     0.000   1.
3000022   2   4   0   0   0   -2.0086651621E+01   2.3595210703E+01   8.8272922766E+01   9.3554149748E+01   2.5000000000E-01   7.644571E-01   0.
3000001    1    5    0    0    0   3.4985475110E+01  -3.1282488170E+01   4.5264095040E+01   6.5210550025E+01   1.0000000000E+00     0.000   1.
3000022   2   5   0   0   0   4.4604924992E+00   -9.8607580994E+00   8.2768052994E+00   1.3627125507E+01   2.5000000000E-01   1.213833E+00   0.
13    1    7    0    0    0  -1.3976177046E+01   1.6476354483E+01   6.1466138077E+01   6.5152904287E+01   1.0500000000E-01     0.000  -1.
-13    1    7    0    0    0  -6.1104745744E+00   7.1188562204E+00   2.6806784689E+01   2.8401245462E+01   1.0500000000E-01     0.000   1.
13    1    9    0    0    0   1.5988738854E+00  -3.5797321665E+00   3.0686216269E+00   4.9797935474E+00   1.0500000000E-01     0.000  -1.
-13    1    9    0    0    0   2.8616186138E+00  -6.2810259328E+00   5.2081836725E+00   8.6473319600E+00   1.0500000000E-01     0.000   1.
</event>
<event>
 13   1  9.2978750E-05  1.2500000E+02  7.5467720E-03  1.2380620E-01
   21   -1    0    0  502  501   0.0000000000E+00   0.0000000000E+00   1.2716454160E+02   1.2716454160E+02   0.0000000000E+00     0.000  -1.
   21   -1    0    0  501  502   0.0000000000E+00   0.0000000000E+00  -3.0718075581E+01   3.0718075581E+01   0.0000000000E+00     0.000  -1.
   25    2    1    2    0    0   0.0000000000E+00   0.0000000000E+00   9.6446466015E+01   1.5788261718E+02   1.2500000000E+02  2.092E-08  -1.
3000002    2    3    0    0    0   4.7859048455E+01  -2.8083244189E+01   1.4165224550E+01   5.8136139447E+01   1.0000000000E+01  1.086E-10  -1.
3000002    2    3    0    0    0  -4.7859048455E+01   2.8083244189E+01   8.2281241465E+01   9.9746477733E+01   1.0000000000E+01  4.062E-11  -1.
3000001    1    4    0    0    0   4.1623636658E+01  -2.0774940888E+01   1.3737861393E+01   4.8516534637E+01   1.0000000000E+00     0.000  -1.
3000022   2   4   0   0   0   6.2354117965E+00   -7.3083033013E+00   4.2736315667E-01   9.6196048091E+00   2.5000000000E-01   1.920609E+00   0.
3000001    1    5    0    0    0  -3.2927907929E+01   1.8117314814E+01   4.7248416743E+01   6.0381264490E+01   1.0000000000E+00     0.000  -1.
3000022   2   5   0   0   0   -1.4931140526E+01   9.9659293747E+00   3.5032824722E+01   3.9365213244E+01   2.5000000000E-01   6.454407E+00   0.
13    1    7    0    0    0   4.1159206830E+00  -4.7887696601E+00   2.3052382891E-01   6.3195952530E+00   1.0500000000E-01     0.000  -1.
-13    1    7    0    0    0   2.1194911135E+00  -2.5195336412E+00   1.9683932776E-01   3.3000095561E+00   1.0500000000E-01     0.000   1.
13    1    9    0    0    0  -4.2646704615E+00   2.8939666189E+00   1.0090690856E+01   1.1331174868E+01   1.0500000000E-01     0.000  -1.
-13    1    9    0    0    0  -1.0666470064E+01   7.0719627558E+00   2.4942133866E+01   2.8034038376E+01   1.0500000000E-01     0.000   1.
</event>
<event>
 13   1  9.2978750E-05  1.2500000E+02  7.5467720E-03  1.2380620E-01
   21   -1    0    0  502  501   0.0000000000E+00   0.0000000000E+00   1.5409661356E+02   1.5409661356E+02   0.0000000000E+00     0.000  -1.
   21   -1    0    0  501  502   0.0000000000E+00   0.0000000000E+00  -2.5349356548E+01   2.5349356548E+01   0.0000000000E+00     0.000  -1.
   25    2    1    2    0    0   0.0000000000E+00   0.0000000000E+00   1.2874725701E+02   1.7944597011E+02   1.2500000000E+02  4.483E-08  -1.
3000002    2    3    0    0    0  -4.9748677966E+01  -3.0809498601E+01   3.6312268662E+01   6.9589776683E+01   1.0000000000E+01  2.061E-09  -1.
3000002    2    3    0    0    0   4.9748677966E+01   3.0809498601E+01   9.2434988348E+01   1.0985619343E+02   1.0000000000E+01  4.803E-10  -1.
3000001    1    4    0    0    0  -1.0730328137E+01  -5.8461092846E+00   3.2633161596E+00   1.2687244305E+01   1.0000000000E+00     0.000   1.
3000022   2   4   0   0   0   -3.9018349829E+01   -2.4963389316E+01   3.3048952502E+01   5.6902532378E+01   2.5000000000E-01   2.183882E+00   0.
3000001    1    5    0    0    0   3.1609441283E+00   7.0401419044E-02   3.2357079225E+00   4.6331770851E+00   1.0000000000E+00     0.000   1.
3000022   2   5   0   0   0   4.6587733837E+01   3.0739097182E+01   8.9199280426E+01   1.0522301634E+02   2.5000000000E-01   9.797727E+00   0.
13    1    7    0    0    0  -2.0033576140E+01  -1.2896566510E+01   1.7012467718E+01   2.9276281929E+01   1.0500000000E-01     0.000  -1.
-13    1    7    0    0    0  -1.8984773689E+01  -1.2066822806E+01   1.6036484784E+01   2.7626250449E+01   1.0500000000E-01     0.000   1.
13    1    9    0    0    0   2.6998801390E+01   1.7838783909E+01   5.1830751227E+01   6.1103152829E+01   1.0500000000E-01     0.000   1.
-13    1    9    0    0    0   1.9588932447E+01   1.2900313273E+01   3.7368529199E+01   4.4119863514E+01   1.0500000000E-01     0.000  -1.
</event>
<event>
 13   1  9.2978750E-05  1.2500000E+02  7.5467720E-03  1.2380620E-01
   21   -1    0    0  502  501   0.0000000000E+00   0.0000000000E+00   1.7150444836E+02   1.7150444836E+02   0.0000000000E+00     0.000  -1.
   21   -1    0    0  501  502   0.0000000000E+00   0.0000000000E+00  -2.2776377157E+01   2.2776377157E+01   0.0000000000E+00     0.000  -1.
   25    2    1    2    0    0   0.0000000000E+00   0.0000000000E+00   1.4872807121E+02   1.9428082552E+02   1.2500000000E+02  9.592E-09  -1.
3000002    2    3    0    0    0   2.1022125131E+00  -1.4834922141E+01   1.6738223167E+02   1.6834876207E+02   1.0000000000E+01  9.261E-11  -1.
3000002    2    3    0    0    0  -2.1022125131E+00   1.4834922141E+01  -1.8654160458E+01   2.5932063450E+01   1.0000000000E+01  6.013E-11  -1.
3000001    1    4    0    0    0   5.8710446921E+00  -6.2573600886E+00   8.1780497240E+01   8.2235475616E+01   1.0000000000E+00     0.000  -1.
3000022   2   4   0   0   0   -3.7688321790E+00   -8.5775620519E+00   8.5601734429E+01   8.6113286454E+01   2.5000000000E-01   4.337915E-01   0.
3000001    1    5    0    0    0   3.8943139783E+00   6.8741414899E+00  -9.5090018139E+00   1.2403250303E+01   1.0000000000E+00     0.000  -1.
3000022   2   5   0   0   0   -5.9965264914E+00   7.9607806507E+00   -9.1451586443E+00   1.3528813147E+01   2.5000000000E-01   3.234340E+00   0.
13    1    7    0    0    0  -2.4125375018E+00  -5.5526343072E+00   5.4832336744E+01   5.5165643862E+01   1.0500000000E-01     0.000  -1.
-13    1    7    0    0    0  -1.3562946772E+00  -3.0249277447E+00   3.0769397685E+01   3.0947642592E+01   1.0500000000E-01     0.000   1.
13    1    9    0    0    0  -2.8806562678E+00   3.8718316559E+00  -4.5114435439E+00   6.6070726312E+00   1.0500000000E-01     0.000   1.
-13    1    9    0    0    0  -3.1158702236E+00   4.0889489948E+00  -4.6337151004E+00   6.9217405155E+00   1.0500000000E-01     0.000  -1.
</event>
<event>
 13   1  9.2978750E-05  1.2500000E+02  7.5467720E-03  1.2380620E-01
   21   -1    0    0  502  501   0.0000000000E+00   0.0000000000E+00   4.7352184859E+01   4.7352184859E+01   0.0000000000E+00     0.000   1.
   21   -1    0    0  501  502   0.0000000000E+00   0.0000000000E+00  -8.2493553605E+01   8.2493553605E+01   0.0000000000E+00     0.000   1.
   25    2    1    2    0    0   0.0000000000E+00   0.0000000000E+00  -3.5141368745E+01   1.2984573846E+02   1.2500000000E+02  1.282E-08  -1.
3000002    2    3    0    0    0   5.3308400350E+01   2.1090152995E+00  -4.9755945557E+01   7.3633468013E+01   1.0000000000E+01  3.510E-10  -1.
3000002    2    3    0    0    0  -5.3308400350E+01  -2.1090152995E+00   1.4614576812E+01   5.6212270447E+01   1.0000000000E+01  1.649E-10  -1.
3000001    1    4    0    0    0   4.6187478857E+01   1.5410286762E-01  -3.8342027770E+01   6.0036805748E+01   1.0000000000E+00     0.000   1.
3000022   2   4   0   0   0   7.1209214931E+00   1.9549124318E+00   -1.1413917786E+01   1.3596662266E+01   2.5000000000E-01   4.434919E+00   0.
3000001    1    5    0    0    0  -6.5404075039E+00   2.6439220468E+00   5.6181226960E-01   7.1472293326E+00   1.0000000000E+00     0.000   1.
3000022   2   5   0   0   0   -4.6767992846E+01   -4.7529373463E+00   1.4052764542E+01   4.9065041114E+01   2.5000000000E-01   1.772359E+00   0.
13    1    7    0    0    0   2.6186782709E+00   6.9138733672E-01  -4.0907276171E+00   4.9071957137E+00   1.0500000000E-01     0.000   1.
-13    1    7    0    0    0   4.5022432223E+00   1.2635250951E+00  -7.3231901694E+00   8.6894665519E+00   1.0500000000E-01     0.000  -1.
13    1    9    0    0    0  -2.3178361426E+01  -2.2900265216E+00   6.9820462369E+00   2.4315440660E+01   1.0500000000E-01     0.000   1.
-13    1    9    0    0    0  -2.3589631420E+01  -2.4629108247E+00   7.0707183054E+00   2.4749600454E+01   1.0500000000E-01     0.000  -1.
</event>
<event>
 13   1  9.2978750E-05  1.2500000E+02  7.5467720E-03  1.2380620E-01
   21   -1    0    0  502  501   0.0000000000E+00   0.0000000000E+00   2.3794570725E+01   2.3794570725E+01   0.0000000000E+00     0.000   1.
   21   -1    0    0  501  502   0.0000000000E+00   0.0000000000E+00  -1.6416560085E+02   1.6416560085E+02   0.0000000000E+00     0.000   1.
   25    2    1    2    0    0   0.0000000000E+00   0.0000000000E+00  -1.4037103012E+02   1.8796017157E+02   1.2500000000E+02  7.418E-09  -1.
3000002    2    3    0    0    0  -5.9754002778E+01  -1.4974310496E+01  -7.5280128043E+01   9.7784807107E+01   1.0000000000E+01  1.265E-09   1.
3000002    2    3    0    0    0   5.9754002778E+01   1.4974310496E+01  -6.5090902077E+01   9.0175364463E+01   1.0000000000E+01  2.485E-10   1.
3000001    1    4    0    0    0  -4.7141745648E+01  -1.3792934791E+01  -5.3880195471E+01   7.2915462673E+01   1.0000000000E+00     0.000   1.
3000022   2   4   0   0   0   -1.2612257130E+01   -1.1813757046E+00   -2.1399932573E+01   2.4869344434E+01   2.5000000000E-01   9.502250E-01   0.
3000001    1    5    0    0    0   2.6190911577E+01   2.7916092915E+00  -2.3028065431E+01   3.5000696124E+01   1.0000000000E+00     0.000  -1.
3000022   2   5   0   0   0   3.3563091201E+01   1.2182701204E+01   -4.2062836646E+01   5.5174668339E+01   2.5000000000E-01   1.065657E+00   0.
13    1    7    0    0    0  -9.2589993016E+00  -8.9461832873E-01  -1.5753260259E+01   1.8294962252E+01   1.0500000000E-01     0.000   1.
-13    1    7    0    0    0  -3.3532578279E+00  -2.8675737591E-01  -5.6466723139E+00   6.5743821819E+00   1.0500000000E-01     0.000  -1.
13    1    9    0    0    0   9.4131122688E+00   3.4547175306E+00  -1.1784807581E+01   1.5473670234E+01   1.0500000000E-01     0.000   1.
-13    1    9    0    0    0   2.4149978932E+01   8.7279836738E+00  -3.0278029065E+01   3.9700998104E+01   1.0500000000E-01     0.000  -1.
</event>
<event>
 13   1  9.2978750E-05  1.2500000E+02  7.5467720E-03  1.2380620E-01
   21   -1    0    0  502  501   0.0000000000E+00   0.0000000000E+00   2.2156115753E+01   2.2156115753E+01   0.0000000000E+00     0.000  -1.
   21   -1    0    0  501  502   0.0000000000E+00   0.0000000000E+00  -1.7630572270E+02   1.7630572270E+02   0.0000000000E+00     0.000  -1.
   25    2    1    2    0    0   0.0000000000E+00   0.0000000000E+00  -1.5414960694E+02   1.9846183845E+02   1.2500000000E+02  7.787E-08  -1.
3000002    2    3    0    0    0   4.7741925489E+01   2.2234810737E+01  -2.6056370513E+01   5.9603797716E+01   1.0000000000E+01  1.667E-09   1.
3000002    2    3    0    0    0  -4.7741925489E+01  -2.2234810737E+01  -1.2809323643E+02   1.3885804073E+02   1.0000000000E+01  2.145E-10   1.
3000001    1    4    0    0    0   3.3732684179E+01   1.1477084717E+01  -2.0320478918E+01   4.1030955619E+01   1.0000000000E+00     0.000   1.
3000022   2   4   0   0   0   1.4009241310E+01   1.0757726019E+01   -5.7358915943E+00   1.8572842097E+01   2.5000000000E-01   4.183857E+00   0.
3000001    1    5    0    0    0  -4.2741265147E+01  -1.7140456510E+01  -1.0435224558E+02   1.1406577994E+02   1.0000000000E+00     0.000  -1.
3000022   2   5   0   0   0   -5.0006603428E+00   -5.0943542263E+00   -2.3740990847E+01   2.4792260793E+01   2.5000000000E-01   3.459994E+00   0.
13    1    7    0    0    0   7.9309843445E+00   6.1410141471E+00  -3.3117224319E+00   1.0563668771E+01   1.0500000000E-01     0.000  -1.
-13    1    7    0    0    0   6.0782569658E+00   4.6167118720E+00  -2.4241691624E+00   8.0091733268E+00   1.0500000000E-01     0.000   1.
13    1    9    0    0    0  -1.3118295855E+00  -1.3391311602E+00  -6.1273924874E+00   6.4085983507E+00   1.0500000000E-01     0.000   1.
-13    1    9    0    0    0  -3.6888307573E+00  -3.7552230661E+00  -1.7613598359E+01   1.8383662442E+01   1.0500000000E-01     0.000  -1.
</event>
<event>
 13   1  9.2978750E-05  1.2500000E+02  7.5467720E-03  1.2380620E-01
   21   -1    0    0  502  501   0.0000000000E+00   0.0000000000E+00   3.7808010737E+02   3.7808010737E+02   0.0000000000E+00     0.000  -1.
   21   -1    0    0  501  502   0.0000000000E+00   0.0000000000E+00  -1.0331805149E+01   1.0331805149E+01   0.0000000000E+00     0.000  -1.
   25    2    1    2    0    0   0.0000000000E+00   0.0000000000E+00   3.6774830222E+02   3.8841191252E+02   1.2500000000E+02  4.322E-08  -1.
3000002    2    3    0    0    0  -2.9583108885E+01   5.3049819187E+01   2.1745686279E+02   2.2600205933E+02   1.0000000000E+01  7.564E-10  -1.
3000002    2    3    0    0    0   2.9583108885E+01  -5.3049819187E+01   1.5029143943E+02   1.6240985319E+02   1.0000000000E+01  5.854E-10  -1.
3000001    1    4    0    0    0  -1.1604631783E+01   2.5053007289E+01   8.2468899664E+01   8.6973789528E+01   1.0000000000E+00     0.000  -1.
3000022   2   4   0   0   0   -1.7978477102E+01   2.7996811898E+01   1.3498796313E+02   1.3902826981E+02   2.5000000000E-01   8.181166E-01   0.
3000001    1    5    0    0    0   2.1923010043E+01  -4.2408067228E+01   1.0689677238E+02   1.1707682299E+02   1.0000000000E+00     0.000  -1.
3000022   2   5   0   0   0   7.6600988415E+00   -1.0641751960E+01   4.3394667043E+01   4.5333030196E+01   2.5000000000E-01   6.485928E-02   0.
13    1    7    0    0    0  -6.7953128942E+00   1.0472802948E+01   5.0598635155E+01   5.2116108675E+01   1.0500000000E-01     0.000   1.
-13    1    7    0    0    0  -1.1183164208E+01   1.7524008950E+01   8.4389327974E+01   8.6912161130E+01   1.0500000000E-01     0.000  -1.
13    1    9    0    0    0   4.7627708576E+00  -6.7143416002E+00   2.7303677295E+01   2.8517857357E+01   1.0500000000E-01     0.000   1.
-13    1    9    0    0    0   2.8973279839E+00  -3.9274103594E+00   1.6090989747E+01   1.6815172840E+01   1.0500000000E-01     0.000  -1.
</event>
<event>
 13   1  9.2978750E-05  1.2500000E+02  7.5467720E-03  1.2380620E-01
   21   -1    0    0  502  501   0.0000000000E+00   0.0000000000E+00   3.7599384505E+01   3.7599384505E+01   0.0000000000E+00     0.000   1.
   21   -1    0    0  501  502   0.0000000000E+00   0.0000000000E+00  -1.0389132831E+02   1.0389132831E+02   0.0000000000E+00     0.000   1.
   25    2    1    2    0    0   0.0000000000E+00   0.0000000000E+00  -6.6291943807E+01   1.4149071282E+02   1.2500000000E+02  8.782E-09  -1.
3000002    2    3    0    0    0   1.6458097834E+01   5.9277891664E+01  -2.7895913586E+01   6.8285572556E+01   1.0000000000E+01  1.748E-10   1.
3000002    2    3    0    0    0  -1.6458097834E+01  -5.9277891664E+01  -3.8396030221E+01   7.3205140264E+01   1.0000000000E+01  4.212E-10   1.
3000001    1    4    0    0    0   9.2143715424E+00   1.8916051879E+01  -1.2429315433E+01   2.4458322587E+01   1.0000000000E+00     0.000  -1.
3000022   2   4   0   0   0   7.2437262913E+00   4.0361839785E+01   -1.5466598153E+01   4.3827249969E+01   2.5000000000E-01   5.707489E+00   0.
3000001    1    5    0    0    0  -7.3731223564E+00  -4.2784207230E+01  -2.5178884616E+01   5.0197883940E+01   1.0000000000E+00     0.000   1.
3000022   2   5   0   0   0   -9.0849754773E+00   -1.6493684434E+01   -1.3217145604E+01   2.3007256324E+01   2.5000000000E-01   6.617787E+00   0.
13    1    7    0    0    0   3.9704592989E+00   2.2447870696E+01  -8.6337994030E+00   2.4376729948E+01   1.0500000000E-01     0.000  -1.
-13    1    7    0    0    0   3.2732669924E+00   1.7913969089E+01  -6.8327987497E+00   1.9450520020E+01   1.0500000000E-01     0.000   1.
13    1    9    0    0    0  -6.7544209311E+00  -1.2264650698E+01  -9.8637592427E+00   1.7127423340E+01   1.0500000000E-01     0.000   1.
-13    1    9    0    0    0  -2.3305545462E+00  -4.2290337360E+00  -3.3533863616E+00   5.8798329843E+00   1.0500000000E-01     0.000  -1.
</event>
<event>
 13   1  9.2978750E-05  1.2500000E+02  7.5467720E-03  1.2380620E-01
   21   -1    0    0  502  501   0.0000000000E+00   0.0000000000E+00   8.8920678764E+00   8.8920678764E+00   0.0000000000E+00     0.000   1.
   21   -1    0    0  501  502   0.0000000000E+00   0.0000000000E+00  -4.3929601689E+02   4.3929601689E+02   0.0000000000E+00     0.000   1.
   25    2    1    2    0    0   0.0000000000E+00   0.0000000000E+00  -4.3040394901E+02   4.4818808476E+02   1.2500000000E+02  1.534E-09  -1.
3000002    2    3    0    0    0  -3.1378243904E+01  -4.0114525280E+01  -9.0352216365E+01   1.0419833171E+02   1.0000000000E+01  2.269E-10  -1.
3000002    2    3    0    0    0   3.1378243904E+01   4.0114525280E+01  -3.4005173265E+02   3.4398975305E+02   1.0000000000E+01  1.355E-09  -1.
3000001    1    4    0    0    0  -1.7987638351E+01  -2.7660695248E+01  -6.5434105977E+01   7.3289094824E+01   1.0000000000E+00     0.000  -1.
3000022   2   4   0   0   0   -1.3390605554E+01   -1.2453830032E+01   -2.4918110387E+01   3.0909236885E+01   2.5000000000E-01   1.400288E+01   0.
3000001    1    5    0    0    0   2.6543883596E+01   2.8310899133E+01  -2.3831878342E+02   2.4145999109E+02   1.0000000000E+00     0.000   1.
3000022   2   5   0   0   0   4.8343603076E+00   1.1803626148E+01   -1.0173294923E+02   1.0252976196E+02   2.5000000000E-01   8.993653E+00   0.
13    1    7    0    0    0  -8.2085993680E+00  -7.5533711411E+00  -1.5168821795E+01   1.8829198040E+01   1.0500000000E-01     0.000  -1.
-13    1    7    0    0    0  -5.1820061855E+00  -4.9004588912E+00  -9.7492885928E+00   1.2080038846E+01   1.0500000000E-01     0.000   1.
13    1    9    0    0    0   2.6412130476E+00   6.4631028711E+00  -5.5149636935E+01   5.5589937796E+01   1.0500000000E-01     0.000  -1.
-13    1    9    0    0    0   2.1931472600E+00   5.3405232764E+00  -4.6583312293E+01   4.6939824168E+01   1.0500000000E-01     0.000   1.
</event>
<event>
 13   1  9.2978750E-05  1.2500000E+02  7.5467720E-03  1.2380620E-01
   21   -1    0    0  502  501   0.0000000000E+00   0.0000000000E+00   3.6090868418E+02   3.6090868418E+02   0.0000000000E+00     0.000   1.
   21   -1    0    0  501  502   0.0000000000E+00   0.0000000000E+00  -1.0823374918E+01   1.0823374918E+01   0.0000000000E+00     0.000   1.
   25    2    1    2    0    0   0.0000000000E+00   0.0000000000E+00   3.5008530926E+02   3.7173205910E+02   1.2500000000E+02  5.159E-08  -1.
3000002    2    3    0    0    0  -2.8094549702E+01  -4.0921608878E+01   6.6085480067E+01   8.3253663413E+01   1.0000000000E+01  1.049E-09   1.
3000002    2    3    0    0    0   2.8094549702E+01   4.0921608878E+01   2.8399982919E+02   2.8847839569E+02   1.0000000000E+01  4.951E-10   1.
3000001    1    4    0    0    0  -6.7805907777E+00  -1.6948716592E+01   1.9927742509E+01   2.7043489548E+01   1.0000000000E+00     0.000   1.
3000022   2   4   0   0   0   -2.1313958924E+01   -2.3972892286E+01   4.6157737557E+01   5.6210173866E+01   2.5000000000E-01   2.574604E-01   0.
3000001    1    5    0    0    0   2.0950890265E+01   3.1664630729E+01   1.9045642582E+02   1.9420669087E+02   1.0000000000E+00     0.000   1.
3000022   2   5   0   0   0   7.1436594373E+00   9.2569781488E+00   9.3543403370E+01   9.4271704815E+01   2.5000000000E-01   9.756111E-01   0.
13    1    7    0    0    0  -1.3354415208E+01  -1.5073656347E+01   2.8892868002E+01   3.5218807016E+01   1.0500000000E-01     0.000  -1.
-13    1    7    0    0    0  -7.9595437169E+00  -8.8992359384E+00   1.7264869555E+01   2.0991366850E+01   1.0500000000E-01     0.000   1.
13    1    9    0    0    0   1.7760899025E+00   2.2731328656E+00   2.3225839432E+01   2.3404535259E+01   1.0500000000E-01     0.000   1.
-13    1    9    0    0    0   5.3675695348E+00   6.9838452832E+00   7.0317563938E+01   7.0867169556E+01   1.0500000000E-01     0.000  -1.
</event>
<event>
 13   1  9.2978750E-05  1.2500000E+02  7.5467720E-03  1.2380620E-01
   21   -1    0    0  502  501   0.0000000000E+00   0.0000000000E+00   1.7471096638E+01   1.7471096638E+01   0.0000000000E+00     0.000  -1.
   21   -1    0    0  501  502   0.0000000000E+00   0.0000000000E+00  -2.2358356095E+02   2.2358356095E+02   0.0000000000E+00     0.000  -1.
   25    2    1    2    0    0   0.0000000000E+00   0.0000000000E+00  -2.0611246431E+02   2.4105465758E+02   1.2500000000E+02  3.036E-09  -1.
3000002    2    3    0    0    0  -4.5906190203E+00   1.5753975267E+01  -2.1774538290E+02   2.1859165879E+02   1.0000000000E+01  2.598E-10  -1.
3000002    2    3    0    0    0   4.5906190203E+00  -1.5753975267E+01   1.1632918588E+01   2.2462998789E+01   1.0000000000E+01  6.254E-10  -1.
3000001    1    4    0    0    0  -6.1174906438E+00   1.5678272779E+01  -1.7301653658E+02   1.7383599702E+02   1.0000000000E+00     0.000  -1.
3000022   2   4   0   0   0   1.5268716235E+00   7.5702488397E-02   -4.4728846318E+01   4.4755661773E+01   2.5000000000E-01   1.968009E+00   0.
3000001    1    5    0    0    0  -7.2849666255E-02  -1.2760058287E+01   4.8191651482E+00   1.3676576592E+01   1.0000000000E+00     0.000  -1.
3000022   2   5   0   0   0   4.6634686866E+00   -2.9939169802E+00   6.8137534397E+00   8.7864221964E+00   2.5000000000E-01   1.205801E+01   0.
13    1    7    0    0    0   8.4250702686E-01   8.7350068214E-02  -2.3282658632E+01   2.3298297494E+01   1.0500000000E-01     0.000  -1.
-13    1    7    0    0    0   6.8436459664E-01  -1.1647579818E-02  -2.1446187686E+01   2.1457364280E+01   1.0500000000E-01     0.000   1.
13    1    9    0    0    0   2.4003382888E+00  -1.5947757371E+00   3.4629282107E+00   4.5064210128E+00   1.0500000000E-01     0.000  -1.
-13    1    9    0    0    0   2.2631303978E+00  -1.3991412431E+00   3.3508252290E+00   4.2800011836E+00   1.0500000000E-01     0.000   1.
</event>
<event>
 13   1  9.2978750E-05  1.2500000E+02  7.5467720E-03  1.2380620E-01
   21   -1    0    0  502  501   0.0000000000E+00   0.0000000000E+00   2.0046216443E+00   2.0046216443E+00   0.0000000000E+00     0.000  -1.
   21   -1    0    0  501  502   0.0000000000E+00   0.0000000000E+00  -1.9486220809E+03   1.9486220809E+03   0.0000000000E+00     0.000  -1.
   25    2    1    2    0    0   0.0000000000E+00   0.0000000000E+00  -1.9466174593E+03   1.9506267026E+03   1.2500000000E+02  1.312E-08  -1.
3000002    2    3    0    0    0   4.0010819928E+01   4.2948200869E+01  -6.7688068643E+02   6.7949457491E+02   1.0000000000E+01  2.318E-12  -1.
3000002    2    3    0    0    0  -4.0010819928E+01  -4.2948200869E+01  -1.2697367729E+03   1.2711321277E+03   1.0000000000E+01  3.413E-10  -1.
3000001    1    4    0    0    0   2.6141078855E+01   3.3524965520E+01  -5.1222939719E+02   5.1399147333E+02   1.0000000000E+00     0.000  -1.
3000022   2   4   0   0   0   1.3869741073E+01   9.4232353484E+00   -1.6465128924E+02   1.6550310158E+02   2.5000000000E-01   4.873333E+00   0.
3000001    1    5    0    0    0  -2.3127392265E+01  -2.6596573901E+01  -6.5813944816E+02   6.5908329309E+02   1.0000000000E+00     0.000  -1.
3000022   2   5   0   0   0   -1.6883427663E+01   -1.6351626968E+01   -6.1159732471E+02   6.1204883460E+02   2.5000000000E-01   1.558773E+00   0.
13    1    7    0    0    0   9.1138811294E+00   6.1511414982E+00  -1.0752717388E+02   1.0808794344E+02   1.0500000000E-01     0.000   1.
-13    1    7    0    0    0   4.7558599434E+00   3.2720938502E+00  -5.7124115368E+01   5.7415158134E+01   1.0500000000E-01     0.000  -1.
13    1    9    0    0    0  -1.1430180226E+01  -1.1104099780E+01  -4.1348558045E+02   4.1379256435E+02   1.0500000000E-01     0.000  -1.
-13    1    9    0    0    0  -5.4532474371E+00  -5.2475271885E+00  -1.9811174427E+02   1.9825627024E+02   1.0500000000E-01     0.000   1.
</event>
<event>
 13   1  9.2978750E-05  1.2500000E+02  7.5467720E-03  1.2380620E-01
   21   -1    0    0  502  501   0.0000000000E+00   0.0000000000E+00   4.8274339413E+02   4.8274339413E+02   0.0000000000E+00     0.000   1.
   21   -1    0    0  501  502   0.0000000000E+00   0.0000000000E+00  -8.0917730776E+00   8.0917730776E+00   0.0000000000E+00     0.000   1.
   25    2    1    2    0    0   0.0000000000E+00   0.0000000000E+00   4.7465162105E+02   4.9083516720E+02   1.2500000000E+02  6.386E-08  -1.
3000002    2    3    0    0    0  -4.3642280864E+01   3.4520627138E+01   3.4195014186E+02   3.4659229925E+02   1.0000000000E+01  9.338E-10  -1.
3000002    2    3    0    0    0   4.3642280864E+01  -3.4520627138E+01   1.3270147919E+02   1.4424286795E+02   1.0000000000E+01  5.773E-10  -1.
3000001    1    4    0    0    0  -3.8589157105E+01   2.7205257385E+01   2.7061611242E+02   2.7470589615E+02   1.0000000000E+00     0.000  -1.
3000022   2   4   0   0   0   -5.0531237589E+00   7.3153697536E+00   7.1334029441E+01   7.1886403099E+01   2.5000000000E-01   9.051665E+00   0.
3000001    1    5    0    0    0   3.5617686051E+01  -2.9227688277E+01   1.1795206083E+02   1.2663556363E+02   1.0000000000E+00     0.000  -1.
3000022   2   5   0   0   0   8.0245948126E+00   -5.2929388613E+00   1.4749418358E+01   1.7607304325E+01   2.5000000000E-01   1.305181E+01   0.
13    1    7    0    0    0  -1.4674048503E+00   2.0810556678E+00   2.0714785307E+01   2.0870970869E+01   1.0500000000E-01     0.000  -1.
-13    1    7    0    0    0  -3.5857189086E+00   5.2343140858E+00   5.0619244134E+01   5.1015432231E+01   1.0500000000E-01     0.000   1.
13    1    9    0    0    0   5.0624217018E+00  -3.2738133819E+00   9.2028843723E+00   1.1002275824E+01   1.0500000000E-01     0.000  -1.
-13    1    9    0    0    0   2.9621731108E+00  -2.0191254794E+00   5.5465339854E+00   6.6050285005E+00   1.0500000000E-01     0.000   1.
</event>
<event>
 13   1  9.2978750E-05  1.2500000E+02  7.5467720E-03  1.2380620E-01
   21   -1    0    0  502  501   0.0000000000E+00   0.0000000000E+00   4.1371571164E+00   4.1371571164E+00   0.0000000000E+00     0.000   1.
   21   -1    0    0  501  502   0.0000000000E+00   0.0000000000E+00  -9.4418700816E+02   9.4418700816E+02   0.0000000000E+00     0.000   1.
   25    2    1    2    0    0   0.0000000000E+00   0.0000000000E+00  -9.4004985104E+02   9.4832416528E+02   1.2500000000E+02  2.774E-09  -1.
3000002    2    3    0    0    0  -4.9026533851E+01  -2.7491094852E+01  -2.7706746185E+02   2.8288821067E+02   1.0000000000E+01  1.383E-10  -1.
3000002    2    3    0    0    0   4.9026533851E+01   2.7491094852E+01  -6.6298238919E+02   6.6543595461E+02   1.0000000000E+01  4.495E-10  -1.
3000001    1    4    0    0    0  -4.9373234830E+01  -2.6852472065E+01  -2.7490732739E+02   2.8059545653E+02   1.0000000000E+00     0.000  -1.
3000022   2   4   0   0   0   3.4670097965E-01   -6.3862278685E-01   -2.1601344648E+00   2.2927541384E+00   2.5000000000E-01   2.674227E+00   0.
3000001    1    5    0    0    0   4.2421934288E+01   2.4948482523E+01  -5.3573590600E+02   5.3799257268E+02   1.0000000000E+00     0.000   1.
3000022   2   5   0   0   0   6.6045995628E+00   2.5426123294E+00   -1.2724648319E+02   1.2744338193E+02   2.5000000000E-01   5.513403E-01   0.
13    1    7    0    0    0   2.0849061488E-01  -3.4544896843E-01  -9.9479196455E-01   1.0786284713E+00   1.0500000000E-01     0.000  -1.
-13    1    7    0    0    0   1.3821036477E-01  -2.9317381842E-01  -1.1653425003E+00   1.2141256672E+00   1.0500000000E-01     0.000   1.
13    1    9    0    0    0   3.0665912814E+00   1.1849664247E+00  -6.0323928377E+01   6.0413537286E+01   1.0500000000E-01     0.000  -1.
-13    1    9    0    0    0   3.5380082814E+00   1.3576459047E+00  -6.6922554816E+01   6.7029844644E+01   1.0500000000E-01     0.000   1.
</event>
<event>
 13   1  9.2978750E-05  1.2500000E+02  7.5467720E-03  1.2380620E-01
   21   -1    0    0  502  501   0.0000000000E+00   0.0000000000E+00   4.8923573933E+02   4.8923573933E+02   0.0000000000E+00     0.000  -1.
   21   -1    0    0  501  502   0.0000000000E+00   0.0000000000E+00  -7.9843921569E+00   7.9843921569E+00   0.0000000000E+00     0.000  -1.
   25    2    1    2    0    0   0.0000000000E+00   0.0000000000E+00   4.8125134717E+02   4.9722013149E+02   1.2500000000E+02  1.780E-08  -1.
3000002    2    3    0    0    0  -8.5729960640E+00  -5.1657173720E+01   3.7039400218E+02   3.7421073837E+02   1.0000000000E+01  5.163E-10  -1.
3000002    2    3    0    0    0   8.5729960640E+00   5.1657173720E+01   1.1085734499E+02   1.2300939312E+02   1.0000000000E+01  1.120E-09  -1.
3000001    1    4    0    0    0  -2.2804296263E+00  -1.8980017625E+00   2.4492614405E+01   2.4691920346E+01   1.0000000000E+00     0.000  -1.
3000022   2   4   0   0   0   -6.2925664377E+00   -4.9759171957E+01   3.4590138778E+02   3.4951881802E+02   2.5000000000E-01   6.317276E+00   0.
3000001    1    5    0    0    0  -8.6497176995E-01   2.4516487873E+00   3.0640574356E+00   4.1409184860E+00   1.0000000000E+00     0.000   1.
3000022   2   5   0   0   0   9.4379678340E+00   4.9205524933E+01   1.0779328755E+02   1.1886847464E+02   2.5000000000E-01   2.268192E+00   0.
13    1    7    0    0    0  -1.8554485960E+00  -1.4899589469E+01   1.0379982534E+02   1.0488019461E+02   1.0500000000E-01     0.000  -1.
-13    1    7    0    0    0  -4.4371178418E+00  -3.4859582489E+01   2.4210156243E+02   2.4463862341E+02   1.0500000000E-01     0.000   1.
13    1    9    0    0    0   4.9524098181E+00   2.6174496779E+01   5.7332211988E+01   6.3218859536E+01   1.0500000000E-01     0.000  -1.
-13    1    9    0    0    0   4.4855580159E+00   2.3031028154E+01   5.0461075565E+01   5.5649615100E+01   1.0500000000E-01     0.000   1.
</event>
<event>
 13   1  9.2978750E-05  1.2500000E+02  7.5467720E-03  1.2380620E-01
   21   -1    0    0  502  501   0.0000000000E+00   0.0000000000E+00   2.2288675192E+02   2.2288675192E+02   0.0000000000E+00     0.000   1.
   21   -1    0    0  501  502   0.0000000000E+00   0.0000000000E+00  -1.7525716385E+01   1.7525716385E+01   0.0000000000E+00     0.000   1.
   25    2    1    2    0    0   0.0000000000E+00   0.0000000000E+00   2.0536103553E+02   2.4041246830E+02   1.2500000000E+02  5.483E-09  -1.
3000002    2    3    0    0    0  -3.2891760223E+01   4.9040880732E+01   1.3705188747E+02   1.4956635896E+02   1.0000000000E+01  4.555E-10   1.
3000002    2    3    0    0    0   3.2891760223E+01  -4.9040880732E+01   6.8309148065E+01   9.0846109344E+01   1.0000000000E+01  1.019E-09   1.
3000001    1    4    0    0    0  -2.2741976710E+00   2.0965210510E+00   3.7601955893E+00   4.9705579600E+00   1.0000000000E+00     0.000  -1.
3000022   2   4   0   0   0   -3.0617562552E+01   4.6944359681E+01   1.3329169188E+02   1.4459580100E+02   2.5000000000E-01   8.316376E-01   0.
3000001    1    5    0    0    0   2.5360094049E+01  -3.1711627578E+01   4.1725050568E+01   5.8230074178E+01   1.0000000000E+00     0.000   1.
3000022   2   5   0   0   0   7.5316661739E+00   -1.7329253154E+01   2.6584097497E+01   3.2616035167E+01   2.5000000000E-01   2.535904E+00   0.
13    1    7    0    0    0  -2.1825316018E+01   3.3507707541E+01   9.5190698883E+01   1.0324916979E+02   1.0500000000E-01     0.000  -1.
-13    1    7    0    0    0  -8.7922465339E+00   1.3436652141E+01   3.8100992993E+01   4.1346631204E+01   1.0500000000E-01     0.000   1.
13    1    9    0    0    0   1.8324986598E+00  -4.1660088786E+00   6.4066772119E+00   7.8594032351E+00   1.0500000000E-01     0.000  -1.
-13    1    9    0    0    0   5.6991675141E+00  -1.3163244276E+01   2.0177420285E+01   2.4756631931E+01   1.0500000000E-01     0.000   1.
</event>
<event>
 13   1  9.2978750E-05  1.2500000E+02  7.5467720E-03  1.2380620E-01
   21   -1    0    0  502  501   0.0000000000E+00   0.0000000000E+00   8.0577571995E+00   8.0577571995E+00   0.0000000000E+00     0.000  -1.
   21   -1    0    0  501  502   0.0000000000E+00   0.0000000000E+00  -4.8478129872E+02   4.8478129872E+02   0.0000000000E+00     0.000  -1.
   25    2    1    2    0    0   0.0000000000E+00   0.0000000000E+00  -4.7672354153E+02   4.9283905592E+02   1.2500000000E+02  2.507E-08  -1.
3000002    2    3    0    0    0  -2.7579077383E+01  -5.3650899783E+01  -2.8934722337E+02   2.9573778965E+02   1.0000000000E+01  1.637E-10  -1.
3000002    2    3    0    0    0   2.7579077383E+01   5.3650899783E+01  -1.8737631816E+02   1.9710126627E+02   1.0000000000E+01  3.717E-10  -1.
3000001    1    4    0    0    0  -1.1906512863E+01  -2.8428482310E+01  -1.2644750383E+02   1.3015342823E+02   1.0000000000E+00     0.000  -1.
3000022   2   4   0   0   0   -1.5672564521E+01   -2.5222417473E+01   -1.6289971954E+02   1.6558436143E+02   2.5000000000E-01   9.274921E+00   0.
3000001    1    5    0    0    0   2.0518989397E+01   4.0588051958E+01  -1.5381619196E+02   1.6040211905E+02   1.0000000000E+00     0.000  -1.
3000022   2   5   0   0   0   7.0600879860E+00   1.3062847825E+01   -3.3560126201E+01   3.6699147215E+01   2.5000000000E-01   4.422083E+00   0.
13    1    7    0    0    0  -1.1151765368E+01  -1.8013779054E+01  -1.1609415063E+02   1.1801152885E+02   1.0500000000E-01     0.000   1.
-13    1    7    0    0    0  -4.5207991531E+00  -7.2086384188E+00  -4.6805568910E+01   4.7572832571E+01   1.0500000000E-01     0.000  -1.
13    1    9    0    0    0   3.2637623482E+00   5.9049016329E+00  -1.5299278064E+01   1.6721212344E+01   1.0500000000E-01     0.000  -1.
-13    1    9    0    0    0   3.7963256378E+00   7.1579461926E+00  -1.8260848137E+01   1.9977934872E+01   1.0500000000E-01     0.000   1.
</event>
<event>
 13   1  9.2978750E-05  1.2500000E+02  7.5467720E-03  1.2380620E-01
   21   -1    0    0  502  501   0.0000000000E+00   0.0000000000E+00   2.9851069152E+00   2.9851069152E+00   0.0000000000E+00     0.000   1.
   21   -1    0    0  501  502   0.0000000000E+00   0.0000000000E+00  -1.3085795956E+03   1.3085795956E+03   0.0000000000E+00     0.000   1.
   25    2    1    2    0    0   0.0000000000E+00   0.0000000000E+00  -1.3055944887E+03   1.3115647025E+03   1.2500000000E+02  1.023E-08  -1.
3000002    2    3    0    0    0   2.5601740638E+01  -2.2133227840E+01  -1.1940444977E+03   1.1945658590E+03   1.0000000000E+01  4.261E-11   1.
3000002    2    3    0    0    0  -2.5601740638E+01   2.2133227840E+01  -1.1154999100E+02   1.1699884355E+02   1.0000000000E+01  7.978E-10   1.
3000001    1    4    0    0    0   2.2670708053E+01  -1.5814836888E+01  -1.0336362864E+03   1.0340063069E+03   1.0000000000E+00     0.000   1.
3000022   2   4   0   0   0   2.9310325856E+00   -6.3183909516E+00   -1.6040821127E+02   1.6055955206E+02   2.5000000000E-01   9.631900E-01   -1.
3000001    1    5    0    0    0  -2.6376331977E+01   2.0912109389E+01  -1.0429340331E+02   1.0959535201E+02   1.0000000000E+00     0.000   1.
3000022   2   5   0   0   0   7.7459133866E-01   1.2211184512E+00   -7.2565876969E+00   7.4034915423E+00   2.5000000000E-01   2.266492E+00   0.
13    1    7    0    0    0   8.2628726817E-01  -1.8340222119E+00  -4.7204947673E+01   4.7247904693E+01   1.0500000000E-01     0.000  -1.
-13    1    7    0    0    0   2.1047453174E+00  -4.4843687398E+00  -1.1320326360E+02   1.1331164737E+02   1.0500000000E-01     0.000  -1.
13    1    9    0    0    0   5.0147913363E-01   7.3395684458E-01  -4.7050967408E+00   4.7894816329E+00   1.0500000000E-01     0.000  -1.
-13    1    9    0    0    0   2.7311220503E-01   4.8716160663E-01  -2.5514909561E+00   2.6140099094E+00   1.0500000000E-01     0.000   1.
</event>
<event>
 13   1  9.2978750E-05  1.2500000E+02  7.5467720E-03  1.2380620E-01
   21   -1    0    0  502  501   0.0000000000E+00   0.0000000000E+00   8.4235602925E+01   8.4235602925E+01   0.0000000000E+00     0.000   1.
   21   -1    0    0  501  502   0.0000000000E+00   0.0000000000E+00  -4.6372909605E+01   4.6372909605E+01   0.0000000000E+00     0.000   1.
   25    2    1    2    0    0   0.0000000000E+00   0.0000000000E+00   3.7862693320E+01   1.3060851253E+02   1.2500000000E+02  3.553E-08  -1.
3000002    2    3    0    0    0   2.7610687397E+01   5.4864983725E+01   2.4999997997E+01   6.7063525091E+01   1.0000000000E+01  1.409E-10  -1.
3000002    2    3    0    0    0  -2.7610687397E+01  -5.4864983725E+01   1.2862695323E+01   6.3544987439E+01   1.0000000000E+01  6.565E-10  -1.
3000001    1    4    0    0    0   2.2859649182E+01   3.5257503591E+01   1.6062816770E+01   4.4996324325E+01   1.0000000000E+00     0.000   1.
3000022   2   4   0   0   0   4.7510382157E+00   1.9607480134E+01   8.9371812270E+00   2.2067200766E+01   2.5000000000E-01   1.131648E+01   0.
3000001    1    5    0    0    0  -2.6791003600E+01  -5.4301822301E+01   1.1192390614E+01   6.1585025670E+01   1.0000000000E+00     0.000  -1.
3000022   2   5   0   0   0   -8.1968379733E-01   -5.6316142405E-01   1.6703047090E+00   1.9599617695E+00   2.5000000000E-01   7.452742E-01   0.
13    1    7    0    0    0   2.6753979392E+00   1.0897620101E+01   5.0331624457E+00   1.2298765272E+01   1.0500000000E-01     0.000   1.
-13    1    7    0    0    0   2.0756402765E+00   8.7098600331E+00   3.9040187813E+00   9.7684354939E+00   1.0500000000E-01     0.000  -1.
13    1    9    0    0    0  -5.0127451264E-01  -2.9865543931E-01   1.0696829453E+00   1.2229954259E+00   1.0500000000E-01     0.000  -1.
-13    1    9    0    0    0  -3.1840928469E-01  -2.6450598474E-01   6.0062176371E-01   7.3696634359E-01   1.0500000000E-01     0.000   1.
</event>
<event>
 13   1  9.2978750E-05  1.2500000E+02  7.5467720E-03  1.2380620E-01
   21   -1    0    0  502  501   0.0000000000E+00   0.0000000000E+00   8.6543438501E+01   8.6543438501E+01   0.0000000000E+00     0.000   1.
   21   -1    0    0  501  502   0.0000000000E+00   0.0000000000E+00  -4.5136293030E+01   4.5136293030E+01   0.0000000000E+00     0.000   1.
   25    2    1    2    0    0   0.0000000000E+00   0.0000000000E+00   4.1407145471E+01   1.3167973153E+02   1.2500000000E+02  8.254E-08  -1.
3000002    2    3    0    0    0  -5.2216436982E+01  -3.0937342296E+01   9.0406045247E+00   6.2172405210E+01   1.0000000000E+01  5.435E-10  -1.
3000002    2    3    0    0    0   5.2216436982E+01   3.0937342296E+01   3.2366540946E+01   6.9507326320E+01   1.0000000000E+01  8.500E-11  -1.
3000001    1    4    0    0    0  -2.5754494174E+01  -1.4175438365E+01  -5.2437726990E-01   2.9419585220E+01   1.0000000000E+00     0.000  -1.
3000022   2   4   0   0   0   -2.6461942807E+01   -1.6761903931E+01   9.5649817946E+00   3.2752819989E+01   2.5000000000E-01   9.482675E+00   0.
3000001    1    5    0    0    0   1.7987068717E+01   6.3949725556E+00   7.1085178294E+00   2.0395130320E+01   1.0000000000E+00     0.000   1.
3000022   2   5   0   0   0   3.4229368264E+01   2.4542369740E+01   2.5258023117E+01   4.9112196001E+01   2.5000000000E-01   9.014831E+00   0.
13    1    7    0    0    0  -1.2095381066E+01  -7.6185422094E+00   4.4237431042E+00   1.4963988659E+01   1.0500000000E-01     0.000   1.
-13    1    7    0    0    0  -1.4366561741E+01  -9.1433617213E+00   5.1412386904E+00   1.7788831330E+01   1.0500000000E-01     0.000  -1.
13    1    9    0    0    0   9.2695816144E+00   6.6632451041E+00   6.8069526154E+00   1.3291711986E+01   1.0500000000E-01     0.000   1.
-13    1    9    0    0    0   2.4959786650E+01   1.7879124636E+01   1.8451070501E+01   3.5820484014E+01   1.0500000000E-01     0.000  -1.
</event>
<event>
 13   1  9.2978750E-05  1.2500000E+02  7.5467720E-03  1.2380620E-01
   21   -1    0    0  502  501   0.0000000000E+00   0.0000000000E+00   1.1458876204E+02   1.1458876204E+02   0.0000000000E+00     0.000  -1.
   21   -1    0    0  501  502   0.0000000000E+00   0.0000000000E+00  -3.4089294017E+01   3.4089294017E+01   0.0000000000E+00     0.000  -1.
   25    2    1    2    0    0   0.0000000000E+00   0.0000000000E+00   8.0499468018E+01   1.4867805605E+02   1.2500000000E+02  7.709E-08  -1.
3000002    2    3    0    0    0  -2.3013640550E+01   3.0551613479E+01  -1.7326533945E+01   4.3165235040E+01   1.0000000000E+01  1.158E-09  -1.
3000002    2    3    0    0    0   2.3013640550E+01  -3.0551613479E+01   9.7826001963E+01   1.0551282101E+02   1.0000000000E+01  1.969E-09  -1.
3000001    1    4    0    0    0  -3.5072454490E+00   7.7838485578E-01  -3.9990351203E-01   3.7505434862E+00   1.0000000000E+00     0.000  -1.
3000022   2   4   0   0   0   -1.9506395101E+01   2.9773228623E+01   -1.6926630433E+01   3.9414691554E+01   2.5000000000E-01   2.257204E+00   0.
3000001    1    5    0    0    0   1.6939176004E+01  -1.5331305754E+01   6.3019445344E+01   6.7040548262E+01   1.0000000000E+00     0.000   1.
3000022   2   5   0   0   0   6.0744645458E+00   -1.5220307724E+01   3.4806556619E+01   3.8472272748E+01   2.5000000000E-01   1.447403E+00   0.
13    1    7    0    0    0  -1.4011902629E+01   2.1382935322E+01  -1.2112517978E+01   2.8289352326E+01   1.0500000000E-01     0.000   1.
-13    1    7    0    0    0  -5.4944924718E+00   8.3902933010E+00  -4.8141124548E+00   1.1125339227E+01   1.0500000000E-01     0.000  -1.
13    1    9    0    0    0   1.7667580480E+00  -4.3714280946E+00   9.9292855867E+00   1.0992386222E+01   1.0500000000E-01     0.000   1.
-13    1    9    0    0    0   4.3077064978E+00  -1.0848879630E+01   2.4877271032E+01   2.7479886526E+01   1.0500000000E-01     0.000  -1.
</event>
<event>
 13   1  9.2978750E-05  1.2500000E+02  7.5467720E-03  1.2380620E-01
   21   -1    0    0  502  501   0.0000000000E+00   0.0000000000E+00   3.0234973634E+00   3.0234973634E+00   0.0000000000E+00     0.000  -1.
   21   -1    0    0  501  502   0.0000000000E+00   0.0000000000E+00  -1.2919640835E+03   1.2919640835E+03   0.0000000000E+00     0.000  -1.
   25    2    1    2    0    0   0.0000000000E+00   0.0000000000E+00  -1.2889405861E+03   1.2949875808E+03   1.2500000000E+02  8.288E-10  -1.
3000002    2    3    0    0    0   2.5396297528E+01  -2.5881934643E+01  -1.1615739722E+03   1.1621828338E+03   1.0000000000E+01  9.738E-10  -1.
3000002    2    3    0    0    0  -2.5396297528E+01   2.5881934643E+01  -1.2736661394E+02   1.3280474696E+02   1.0000000000E+01  1.362E-10  -1.
3000001    1    4    0    0    0   6.1618308647E+00  -1.3049770471E+01  -4.2656171368E+02   4.2680693557E+02   1.0000000000E+00     0.000  -1.
3000022   2   4   0   0   0   1.9234466664E+01   -1.2832164172E+01   -7.3501225848E+02   7.3537589827E+02   2.5000000000E-01   3.540512E+00   0.
3000001    1    5    0    0    0  -2.0589226973E+01   2.4091188597E+01  -9.8271416143E+01   1.0325973497E+02   1.0000000000E+00     0.000  -1.
3000022   2   5   0   0   0   -4.8070705550E+00   1.7907460454E+00   -2.9095197796E+01   2.9545011991E+01   2.5000000000E-01   3.866046E+00   0.
13    1    7    0    0    0   8.6492846881E+00  -5.7314266107E+00  -3.3168723777E+02   3.3184950520E+02   1.0500000000E-01     0.000  -1.
-13    1    7    0    0    0   1.0585181976E+01  -7.1007375610E+00  -4.0332502071E+02   4.0352639307E+02   1.0500000000E-01     0.000   1.
13    1    9    0    0    0  -1.3150940469E+00   5.0191972012E-01  -7.7916811374E+00   7.9185046382E+00   1.0500000000E-01     0.000   1.
-13    1    9    0    0    0  -3.4919765081E+00   1.2888263253E+00  -2.1303516659E+01   2.1626507353E+01   1.0500000000E-01     0.000  -1.
</event>
<event>
 13   1  9.2978750E-05  1.2500000E+02  7.5467720E-03  1.2380620E-01
   21   -1    0    0  502  501   0.0000000000E+00   0.0000000000E+00   1.1743154544E+01   1.1743154544E+01   0.0000000000E+00     0.000   1.
   21   -1    0    0  501  502   0.0000000000E+00   0.0000000000E+00  -3.3264060226E+02   3.3264060226E+02   0.0000000000E+00     0.000   1.
   25    2    1    2    0    0   0.0000000000E+00   0.0000000000E+00  -3.2089744772E+02   3.4438375681E+02   1.2500000000E+02  2.872E-08  -1.
3000002    2    3    0    0    0   4.1287378540E+01   4.5624047175E+01  -1.7278476134E+02   1.8368662188E+02   1.0000000000E+01  4.465E-10   1.
3000002    2    3    0    0    0  -4.1287378540E+01  -4.5624047175E+01  -1.4811268638E+02   1.6069713493E+02   1.0000000000E+01  9.081E-10   1.
3000001    1    4    0    0    0   3.4367673814E+01   3.2636735791E+01  -1.2503201059E+02   1.3371722850E+02   1.0000000000E+00     0.000   1.
3000022   2   4   0   0   0   6.9197047254E+00   1.2987311383E+01   -4.7752750751E+01   4.9969393379E+01   2.5000000000E-01   3.156595E+00   0.
3000001    1    5    0    0    0  -1.1643364951E+01  -1.6972023405E+01  -4.0125809510E+01   4.5107628121E+01   1.0000000000E+00     0.000   1.
3000022   2   5   0   0   0   -2.9644013588E+01   -2.8652023769E+01   -1.0798687687E+02   1.1558950681E+02   2.5000000000E-01   1.474933E+00   0.
13    1    7    0    0    0   5.0366558872E+00   9.4642099707E+00  -3.4909402302E+01   3.6518715298E+01   1.0500000000E-01     0.000  -1.
-13    1    7    0    0    0   1.8830488382E+00   3.5231014127E+00  -1.2843348448E+01   1.3450678082E+01   1.0500000000E-01     0.000   1.
13    1    9    0    0    0  -2.0868789820E+01  -2.0136917671E+01  -7.6064866151E+01   8.1405630821E+01   1.0500000000E-01     0.000  -1.
-13    1    9    0    0    0  -8.7752237684E+00  -8.5151060987E+00  -3.1922010721E+01   3.4183875988E+01   1.0500000000E-01     0.000   1.
</event>
<event>
 13   1  9.2978750E-05  1.2500000E+02  7.5467720E-03  1.2380620E-01
   21   -1    0    0  502  501   0.0000000000E+00   0.0000000000E+00   2.4939740750E+02   2.4939740750E+02   0.0000000000E+00     0.000  -1.
   21   -1    0    0  501  502   0.0000000000E+00   0.0000000000E+00  -1.5662753030E+01   1.5662753030E+01   0.0000000000E+00     0.000  -1.
   25    2    1    2    0    0   0.0000000000E+00   0.0000000000E+00   2.3373465447E+02   2.6506016053E+02   1.2500000000E+02  1.291E-08  -1.
3000002    2    3    0    0    0   3.6608493384E+01  -3.9339177968E+01   5.2602494275E+01   7.5860234082E+01   1.0000000000E+01  1.071E-09  -1.
3000002    2    3    0    0    0  -3.6608493384E+01   3.9339177968E+01   1.8113216020E+02   1.8919992645E+02   1.0000000000E+01  1.667E-09  -1.
3000001    1    4    0    0    0   1.1772964810E+01  -6.6307745947E+00   1.4353899844E+01   1.9738396918E+01   1.0000000000E+00     0.000   1.
3000022   2   4   0   0   0   2.4835528574E+01   -3.2708403373E+01   3.8248594431E+01   5.6121837164E+01   2.5000000000E-01   3.721942E+00   0.
3000001    1    5    0    0    0  -5.6121382643E-01   2.1448326649E+00   1.4515184404E+01   1.4717535337E+01   1.0000000000E+00     0.000   1.
3000022   2   5   0   0   0   -3.6047279558E+01   3.7194345303E+01   1.6661697579E+02   1.7448239111E+02   2.5000000000E-01   3.031000E+00   0.
13    1    7    0    0    0   9.7269884171E+00  -1.2788369926E+01   1.4881153791E+01   2.1900147766E+01   1.0500000000E-01     0.000   1.
-13    1    7    0    0    0   1.5108540157E+01  -1.9920033446E+01   2.3367440640E+01   3.4221689398E+01   1.0500000000E-01     0.000  -1.
13    1    9    0    0    0  -2.2700955573E+01   2.3406719545E+01   1.0469207686E+02   1.0965240484E+02   1.0500000000E-01     0.000  -1.
-13    1    9    0    0    0  -1.3346323985E+01   1.3787625758E+01   6.1924898926E+01   6.4829986271E+01   1.0500000000E-01     0.000   1.
</event>
<event>
 13   1  9.2978750E-05  1.2500000E+02  7.5467720E-03  1.2380620E-01
   21   -1    0    0  502  501   0.0000000000E+00   0.0000000000E+00   8.5718952133E+02   8.5718952133E+02   0.0000000000E+00     0.000   1.
   21   -1    0    0  501  502   0.0000000000E+00   0.0000000000E+00  -4.5570435742E+00   4.5570435742E+00   0.0000000000E+00     0.000   1.
   25    2    1    2    0    0   0.0000000000E+00   0.0000000000E+00   8.5263247775E+02   8.6174656490E+02   1.2500000000E+02  1.672E-11  -1.
3000002    2    3    0    0    0  -4.2620139475E+01  -4.4123877986E+01   4.7144786221E+02   4.7552758036E+02   1.0000000000E+01  2.522E-09  -1.
3000002    2    3    0    0    0   4.2620139475E+01   4.4123877986E+01   3.8118461554E+02   3.8621898454E+02   1.0000000000E+01  2.930E-10  -1.
3000001    1    4    0    0    0  -3.6089005424E+01  -4.0432963261E+01   4.3029579329E+02   4.3369656507E+02   1.0000000000E+00     0.000  -1.
3000022   2   4   0   0   0   -6.5311340513E+00   -3.6909147248E+00   4.1152068925E+01   4.1831015292E+01   2.5000000000E-01   3.003765E+00   0.
3000001    1    5    0    0    0   3.9178256128E+01   3.5741332891E+01   3.1986847693E+02   3.2423636620E+02   1.0000000000E+00     0.000  -1.
3000022   2   5   0   0   0   3.4418833470E+00   8.3825450954E+00   6.1316138603E+01   6.1982618341E+01   2.5000000000E-01   4.614924E-01   0.
13    1    7    0    0    0  -2.7721244139E+00  -1.5285807787E+00   1.7679347720E+01   1.7960834996E+01   1.0500000000E-01     0.000   1.
-13    1    7    0    0    0  -3.7590096373E+00  -2.1623339461E+00   2.3472721206E+01   2.3870180296E+01   1.0500000000E-01     0.000  -1.
13    1    9    0    0    0   2.4076202674E+00   5.9684520384E+00   4.3646614370E+01   4.4118669813E+01   1.0500000000E-01     0.000  -1.
-13    1    9    0    0    0   1.0342630795E+00   2.4140930569E+00   1.7669524233E+01   1.7863948528E+01   1.0500000000E-01     0.000   1.
</event>
<event>
 13   1  9.2978750E-05  1.2500000E+02  7.5467720E-03  1.2380620E-01
   21   -1    0    0  502  501   0.0000000000E+00   0.0000000000E+00   9.2659629038E+01   9.2659629038E+01   0.0000000000E+00     0.000  -1.
   21   -1    0    0  501  502   0.0000000000E+00   0.0000000000E+00  -4.2156978617E+01   4.2156978617E+01   0.0000000000E+00     0.000  -1.
   25    2    1    2    0    0   0.0000000000E+00   0.0000000000E+00   5.0502650422E+01   1.3481660766E+02   1.2500000000E+02  1.424E-08  -1.
3000002    2    3    0    0    0  -5.1262141449E+01   2.2035840831E+01   5.3640813198E+01   7.8043079562E+01   1.0000000000E+01  3.848E-10   1.
3000002    2    3    0    0    0   5.1262141449E+01  -2.2035840831E+01  -3.1381627762E+00   5.6773528098E+01   1.0000000000E+01  1.538E-09   1.
3000001    1    4    0    0    0  -3.2398885578E+01   1.4287085265E+01   2.7258745319E+01   4.4697290616E+01   1.0000000000E+00     0.000  -1.
3000022   2   4   0   0   0   -1.8863255871E+01   7.7487555656E+00   2.6382067880E+01   3.3345788947E+01   2.5000000000E-01   1.007652E+01   0.
3000001    1    5    0    0    0   2.1245408102E+01  -4.1039205060E+00  -2.4650872219E+00   2.1801059239E+01   1.0000000000E+00     0.000   1.
3000022   2   5   0   0   0   3.0016733347E+01   -1.7931920325E+01   -6.7307555433E-01   3.4972468858E+01   2.5000000000E-01   5.170504E+00   0.
13    1    7    0    0    0  -1.0136794070E+01   4.2207724112E+00   1.4273499225E+01   1.8008701200E+01   1.0500000000E-01     0.000   1.
-13    1    7    0    0    0  -8.7264618014E+00   3.5279831544E+00   1.2108568654E+01   1.5337087747E+01   1.0500000000E-01     0.000  -1.
13    1    9    0    0    0   1.9189196195E+01  -1.1468326211E+01  -3.7226785575E-01   2.2358384670E+01   1.0500000000E-01     0.000  -1.
-13    1    9    0    0    0   1.0827537152E+01  -6.4635941140E+00  -3.0080769858E-01   1.2614084189E+01   1.0500000000E-01     0.000   1.
</event>
<event>
 13   1  9.2978750E-05  1.2500000E+02  7.5467720E-03  1.2380620E-01
   21   -1    0    0  502  501   0.0000000000E+00   0.0000000000E+00   4.8976940218E+02   4.8976940218E+02   0.0000000000E+00     0.000  -1.
   21   -1    0    0  501  502   0.0000000000E+00   0.0000000000E+00  -7.9756921984E+00   7.9756921984E+00   0.0000000000E+00     0.000  -1.
   25    2    1    2    0    0   0.0000000000E+00   0.0000000000E+00   4.8179370999E+02   4.9774509438E+02   1.2500000000E+02  8.376E-09  -1.
3000002    2    3    0    0    0   2.4985473781E+01   5.5765144396E+01   2.7473761093E+02   2.8162879840E+02   1.0000000000E+01  5.978E-10   1.
3000002    2    3    0    0    0  -2.4985473781E+01  -5.5765144396E+01   2.0705609906E+02   2.1611629598E+02   1.0000000000E+01  3.994E-11   1.
3000001    1    4    0    0    0   9.2396673675E-01   1.0378896680E+01   4.1333539057E+01   4.2638441127E+01   1.0000000000E+00     0.000  -1.
3000022   2   4   0   0   0   2.4061507045E+01   4.5386247716E+01   2.3340407187E+02   2.3899035727E+02   2.5000000000E-01   7.411465E-01   0.
3000001    1    5    0    0    0  -8.8047270334E+00  -3.1015043682E+01   1.1390501780E+02   1.1838415956E+02   1.0000000000E+00     0.000  -1.
3000022   2   5   0   0   0   -1.6180746748E+01   -2.4750100714E+01   9.3151081257E+01   9.7732136424E+01   2.5000000000E-01   4.428808E-01   0.
13    1    7    0    0    0   1.0499588869E+01   1.9882648628E+01   1.0241772920E+02   1.0485687084E+02   1.0500000000E-01     0.000   1.
-13    1    7    0    0    0   1.3561918176E+01   2.5503599088E+01   1.3098634268E+02   1.3413348644E+02   1.0500000000E-01     0.000  -1.
13    1    9    0    0    0  -1.0069016012E+01  -1.5408556102E+01   5.7784353559E+01   6.0645290220E+01   1.0500000000E-01     0.000   1.
-13    1    9    0    0    0  -6.1117307360E+00  -9.3415446116E+00   3.5366727698E+01   3.7086846205E+01   1.0500000000E-01     0.000  -1.
</event>
<event>
 13   1  9.2978750E-05  1.2500000E+02  7.5467720E-03  1.2380620E-01
   21   -1    0    0  502  501   0.0000000000E+00   0.0000000000E+00   2.2848001873E+01   2.2848001873E+01   0.0000000000E+00     0.000   1.
   21   -1    0    0  501  502   0.0000000000E+00   0.0000000000E+00  -1.7096681021E+02   1.7096681021E+02   0.0000000000E+00     0.000   1.
   25    2    1    2    0    0   0.0000000000E+00   0.0000000000E+00  -1.4811880834E+02   1.9381481209E+02   1.2500000000E+02  1.096E-07  -1.
3000002    2    3    0    0    0  -5.4849742631E+01   2.0176723790E+01  -1.0470541504E+02   1.2032796178E+02   1.0000000000E+01  4.237E-10   1.
3000002    2    3    0    0    0   5.4849742631E+01  -2.0176723790E+01  -4.3413393305E+01   7.3486850305E+01   1.0000000000E+01  3.806E-10   1.
3000001    1    4    0    0    0  -4.9712426265E+01   1.7128790417E+01  -9.8798276995E+01   1.1192327874E+02   1.0000000000E+00     0.000   1.
3000022   2   4   0   0   0   -5.1373163658E+00   3.0479333724E+00   -5.9071380399E+00   8.4046830462E+00   2.5000000000E-01   1.719273E+00   0.
3000001    1    5    0    0    0   7.0843328748E+00  -4.3510458933E+00  -2.8229383309E+00   8.8367614807E+00   1.0000000000E+00     0.000  -1.
3000022   2   5   0   0   0   4.7765409756E+01   -1.5825677896E+01   -4.0590454974E+01   6.4650088825E+01   2.5000000000E-01   7.899443E-01   0.
13    1    7    0    0    0  -3.3804145789E+00   2.0535955983E+00  -3.9593186445E+00   5.5974714591E+00   1.0500000000E-01     0.000   1.
-13    1    7    0    0    0  -1.7569017869E+00   9.9433777417E-01  -1.9478193953E+00   2.8072115871E+00   1.0500000000E-01     0.000  -1.
13    1    9    0    0    0   2.9135328458E+01  -9.6968558353E+00  -2.4828959141E+01   3.9489044234E+01   1.0500000000E-01     0.000  -1.
-13    1    9    0    0    0   1.8630081298E+01  -6.1288220611E+00  -1.5761495833E+01   2.5161044591E+01   1.0500000000E-01     0.000   1.
</event>
<event>
 13   1  9.2978750E-05  1.2500000E+02  7.5467720E-03  1.2380620E-01
   21   -1    0    0  502  501   0.0000000000E+00   0.0000000000E+00   5.1161232292E+00   5.1161232292E+00   0.0000000000E+00     0.000   1.
   21   -1    0    0  501  502   0.0000000000E+00   0.0000000000E+00  -7.6351757474E+02   7.6351757474E+02   0.0000000000E+00     0.000   1.
   25    2    1    2    0    0   0.0000000000E+00   0.0000000000E+00  -7.5840145151E+02   7.6863369797E+02   1.2500000000E+02  5.237E-08  -1.
3000002    2    3    0    0    0   3.0508792914E+01   5.1601732468E+01  -4.6888544039E+02   4.7280765798E+02   1.0000000000E+01  8.983E-10   1.
3000002    2    3    0    0    0  -3.0508792914E+01  -5.1601732468E+01  -2.8951601112E+02   2.9582603999E+02   1.0000000000E+01  8.118E-10   1.
3000001    1    4    0    0    0   1.8592104830E+01   3.7933780227E+01  -3.5121307173E+02   3.5374603857E+02   1.0000000000E+00     0.000   1.
3000022   2   4   0   0   0   1.1916688085E+01   1.3667952242E+01   -1.1767236865E+02   1.1906161941E+02   2.5000000000E-01   2.319254E+01   0.
3000001    1    5    0    0    0  -1.1040383914E+01  -1.9145920671E+01  -1.3094636534E+02   1.3280213459E+02   1.0000000000E+00     0.000  -1.
3000022   2   5   0   0   0   -1.9468409000E+01   -3.2455811798E+01   -1.5856964578E+02   1.6302390540E+02   2.5000000000E-01   8.855383E+00   0.
13    1    7    0    0    0   3.1730474342E+00   3.6528608199E+00  -3.1183710189E+01   3.1557034531E+01   1.0500000000E-01     0.000  -1.
-13    1    7    0    0    0   8.7436406503E+00   1.0015091422E+01  -8.6488658461E+01   8.7504584882E+01   1.0500000000E-01     0.000   1.
13    1    9    0    0    0  -8.2443583093E+00  -1.3714374298E+01  -6.7315669667E+01   6.9191501747E+01   1.0500000000E-01     0.000  -1.
-13    1    9    0    0    0  -1.1224050691E+01  -1.8741437500E+01  -9.1253976117E+01   9.3832403655E+01   1.0500000000E-01     0.000   1.
</event>
<event>
 13   1  9.2978750E-05  1.2500000E+02  7.5467720E-03  1.2380620E-01
   21   -1    0    0  502  501   0.0000000000E+00   0.0000000000E+00   1.1443695693E+01   1.1443695693E+01   0.0000000000E+00     0.000   1.
   21   -1    0    0  501  502   0.0000000000E+00   0.0000000000E+00  -3.4134514800E+02   3.4134514800E+02   0.0000000000E+00     0.000   1.
   25    2    1    2    0    0   0.0000000000E+00   0.0000000000E+00  -3.2990145231E+02   3.5278884370E+02   1.2500000000E+02  2.243E-09  -1.
3000002    2    3    0    0    0  -1.9208608234E+01   4.9508521007E+01  -7.6320025149E+01   9.3513691625E+01   1.0000000000E+01  6.495E-10  -1.
3000002    2    3    0    0    0   1.9208608234E+01  -4.9508521007E+01  -2.5358142716E+02   2.5927515207E+02   1.0000000000E+01  9.889E-10  -1.
3000001    1    4    0    0    0  -7.7980971919E-01   8.6635984857E+00  -1.7509812756E+01   1.9577016746E+01   1.0000000000E+00     0.000  -1.
3000022   2   4   0   0   0   -1.8428798515E+01   4.0844922521E+01   -5.8810212394E+01   7.3936674880E+01   2.5000000000E-01   5.401544E+00   0.
3000001    1    5    0    0    0   9.8387748993E+00  -3.2616319586E+01  -1.8010883521E+02   1.8330525992E+02   1.0000000000E+00     0.000   1.
3000022   2   5   0   0   0   9.3698333345E+00   -1.6892201421E+01   -7.3472591952E+01   7.5969892152E+01   2.5000000000E-01   1.261504E+00   0.
13    1    7    0    0    0  -1.1273457965E+01   2.4917630345E+01  -3.5984977355E+01   4.5198548392E+01   1.0500000000E-01     0.000  -1.
-13    1    7    0    0    0  -7.1553405495E+00   1.5927292177E+01  -2.2825235038E+01   2.8738126488E+01   1.0500000000E-01     0.000   1.
13    1    9    0    0    0   4.8080554466E+00  -8.6692048397E+00  -3.7971784203E+01   3.9244616578E+01   1.0500000000E-01     0.000  -1.
-13    1    9    0    0    0   4.5617778879E+00  -8.2229965812E+00  -3.5500807748E+01   3.6725275575E+01   1.0500000000E-01     0.000   1.
</event>
<event>
 13   1  9.2978750E-05  1.2500000E+02  7.5467720E-03  1.2380620E-01
   21   -1    0    0  502  501   0.0000000000E+00   0.0000000000E+00   4.1615279070E+01   4.1615279070E+01   0.0000000000E+00     0.000  -1.
   21   -1    0    0  501  502   0.0000000000E+00   0.0000000000E+00  -9.3865764866E+01   9.3865764866E+01   0.0000000000E+00     0.000  -1.
   25    2    1    2    0    0   0.0000000000E+00   0.0000000000E+00  -5.2250485796E+01   1.3548104394E+02   1.2500000000E+02  7.379E-08  -1.
3000002    2    3    0    0    0  -2.7942163163E+01   3.4715895908E+01   2.0117018277E+01   4.9906435810E+01   1.0000000000E+01  4.770E-10   1.
3000002    2    3    0    0    0   2.7942163163E+01  -3.4715895908E+01  -7.2367504073E+01   8.5574608130E+01   1.0000000000E+01  1.125E-10   1.
3000001    1    4    0    0    0  -4.9182237016E+00   1.1213382355E+01   8.8030114348E+00   1.5113632209E+01   1.0000000000E+00     0.000  -1.
3000022   2   4   0   0   0   -2.3023939461E+01   2.3502513553E+01   1.1314006842E+01   3.4792803601E+01   2.5000000000E-01   3.651072E+00   0.
3000001    1    5    0    0    0   2.3872919511E+01  -2.5211577246E+01  -4.9436765388E+01   6.0419646517E+01   1.0000000000E+00     0.000  -1.
3000022   2   5   0   0   0   4.0692436512E+00   -9.5043186617E+00   -2.2930738685E+01   2.5154961613E+01   2.5000000000E-01   1.649085E+00   0.
13    1    7    0    0    0  -7.5710694332E+00   7.6570671492E+00   3.7194329129E+00   1.1392847576E+01   1.0500000000E-01     0.000   1.
-13    1    7    0    0    0  -1.5452870028E+01   1.5845446404E+01   7.5945739289E+00   2.3399956025E+01   1.0500000000E-01     0.000  -1.
13    1    9    0    0    0   1.8663389054E+00  -4.3718803032E+00  -1.0380959713E+01   1.1418051841E+01   1.0500000000E-01     0.000   1.
-13    1    9    0    0    0   2.2029047458E+00  -5.1324383585E+00  -1.2549778972E+01   1.3736909771E+01   1.0500000000E-01     0.000  -1.
</event>
<event>
 13   1  9.2978750E-05  1.2500000E+02  7.5467720E-03  1.2380620E-01
   21   -1    0    0  502  501   0.0000000000E+00   0.0000000000E+00   3.6433275097E+01   3.6433275097E+01   0.0000000000E+00     0.000   1.
   21   -1    0    0  501  502   0.0000000000E+00   0.0000000000E+00  -1.0721654832E+02   1.0721654832E+02   0.0000000000E+00     0.000   1.
   25    2    1    2    0    0   0.0000000000E+00   0.0000000000E+00  -7.0783273226E+01   1.4364982342E+02   1.2500000000E+02  6.871E-08  -1.
3000002    2    3    0    0    0  -5.3526615336E+01   7.9442890375E+00  -6.9444384678E+01   8.8604361298E+01   1.0000000000E+01  4.979E-10   1.
3000002    2    3    0    0    0   5.3526615336E+01  -7.9442890375E+00  -1.3388885476E+00   5.5045462122E+01   1.0000000000E+01  3.705E-10   1.
3000001    1    4    0    0    0  -1.8279383152E+01   4.0805341425E-01  -3.0209342714E+01   3.5325723534E+01   1.0000000000E+00     0.000   1.
3000022   2   4   0   0   0   -3.5247232184E+01   7.5362356233E+00   -3.9235041965E+01   5.3278637764E+01   2.5000000000E-01   9.334102E-01   0.
3000001    1    5    0    0    0   6.6798297915E+00   1.8528344087E+00  -1.5982673225E+00   7.1838415784E+00   1.0000000000E+00     0.000  -1.
3000022   2   5   0   0   0   4.6846785545E+01   -9.7971234462E+00   2.5937877487E-01   4.7861620544E+01   2.5000000000E-01   5.758199E+00   0.
13    1    7    0    0    0  -1.7578582052E+01   3.8267753966E+00  -1.9565397339E+01   2.6579438574E+01   1.0500000000E-01     0.000  -1.
-13    1    7    0    0    0  -1.7668650132E+01   3.7094602266E+00  -1.9669644626E+01   2.6699199190E+01   1.0500000000E-01     0.000   1.
13    1    9    0    0    0   2.1183271977E+01  -4.3670244440E+00   9.1804525889E-02   2.1629178607E+01   1.0500000000E-01     0.000   1.
-13    1    9    0    0    0   2.5663513568E+01  -5.4300990023E+00   1.6757424898E-01   2.6232441937E+01   1.0500000000E-01     0.000  -1.
</event>
<event>
 13   1  9.2978750E-05  1.2500000E+02  7.5467720E-03  1.2380620E-01
   21   -1    0    0  502  501   0.0000000000E+00   0.0000000000E+00   3.6694655722E+01   3.6694655722E+01   0.0000000000E+00     0.000  -1.
   21   -1    0    0  501  502   0.0000000000E+00   0.0000000000E+00  -1.0645283143E+02   1.0645283143E+02   0.0000000000E+00     0.000  -1.
   25    2    1    2    0    0   0.0000000000E+00   0.0000000000E+00  -6.9758175707E+01   1.4314748715E+02   1.2500000000E+02  6.636E-09  -1.
3000002    2    3    0    0    0   4.3288732035E+01  -9.2498669051E-01  -8.5208149374E+01   9.6099940902E+01   1.0000000000E+01  1.130E-09  -1.
3000002    2    3    0    0    0  -4.3288732035E+01   9.2498669051E-01   1.5449973667E+01   4.7047546248E+01   1.0000000000E+01  1.535E-09  -1.
3000001    1    4    0    0    0   2.6709717184E+01   1.7678424700E+00  -6.1128318278E+01   6.6739834840E+01   1.0000000000E+00     0.000  -1.
3000022   2   4   0   0   0   1.6579014851E+01   -2.6928291605E+00   -2.4079831097E+01   2.9360106062E+01   2.5000000000E-01   5.651786E+00   0.
3000001    1    5    0    0    0  -1.4594891824E+00  -1.6286014446E+00   6.7067963281E-02   2.4056079170E+00   1.0000000000E+00     0.000   1.
3000022   2   5   0   0   0   -4.1829242853E+01   2.5535881351E+00   1.5382905704E+01   4.4641938331E+01   2.5000000000E-01   1.032855E+00   0.
13    1    7    0    0    0   8.7608148776E+00  -1.3565135759E+00  -1.2681437937E+01   1.5473264023E+01   1.0500000000E-01     0.000   1.
-13    1    7    0    0    0   7.8181999734E+00  -1.3363155846E+00  -1.1398393160E+01   1.3886842038E+01   1.0500000000E-01     0.000  -1.
13    1    9    0    0    0  -9.8304577693E+00   6.0134101425E-01   3.5999280123E+00   1.0486659032E+01   1.0500000000E-01     0.000   1.
-13    1    9    0    0    0  -3.1998785084E+01   1.9522471208E+00   1.1782977692E+01   3.4155279298E+01   1.0500000000E-01     0.000  -1.
</event>
<event>
 13   1  9.2978750E-05  1.2500000E+02  7.5467720E-03  1.2380620E-01
   21   -1    0    0  502  501   0.0000000000E+00   0.0000000000E+00   6.9530131549E+01   6.9530131549E+01   0.0000000000E+00     0.000   1.
   21   -1    0    0  501  502   0.0000000000E+00   0.0000000000E+00  -5.6180678980E+01   5.6180678980E+01   0.0000000000E+00     0.000   1.
   25    2    1    2    0    0   0.0000000000E+00   0.0000000000E+00   1.3349452568E+01   1.2571081053E+02   1.2500000000E+02  4.178E-08  -1.
3000002    2    3    0    0    0   2.0634449055E+01   1.1253438004E+01  -5.0691993715E+01   5.6763532145E+01   1.0000000000E+01  1.534E-09   1.
3000002    2    3    0    0    0  -2.0634449055E+01  -1.1253438004E+01   6.4041446283E+01   6.8947278385E+01   1.0000000000E+01  7.450E-10   1.
3000001    1    4    0    0    0   1.0532438134E+01   1.0509233696E+01  -2.4519287340E+01   2.8697938908E+01   1.0000000000E+00     0.000  -1.
3000022   2   4   0   0   0   1.0102010921E+01   7.4420430773E-01   -2.6172706375E+01   2.8065593237E+01   2.5000000000E-01   6.059669E+00   0.
3000001    1    5    0    0    0  -6.3131538899E+00   6.1620750513E-01   2.3135329506E+01   2.4009979073E+01   1.0000000000E+00     0.000   1.
3000022   2   5   0   0   0   -1.4321295166E+01   -1.1869645509E+01   4.0906116777E+01   4.4937299312E+01   2.5000000000E-01   2.295141E+00   0.
13    1    7    0    0    0   3.5620943550E+00   2.5882006820E-01  -9.0730720338E+00   9.7512647975E+00   1.0500000000E-01     0.000   1.
-13    1    7    0    0    0   6.5399165661E+00   4.8538423954E-01  -1.7099634342E+01   1.8314328439E+01   1.0500000000E-01     0.000  -1.
13    1    9    0    0    0  -7.4876747484E+00  -6.2922503989E+00   2.1480132655E+01   2.3602220491E+01   1.0500000000E-01     0.000  -1.
-13    1    9    0    0    0  -6.8336204172E+00  -5.5773951100E+00   1.9425984122E+01   2.1335078821E+01   1.0500000000E-01     0.000   1.
</event>
<event>
 13   1  9.2978750E-05  1.2500000E+02  7.5467720E-03  1.2380620E-01
   21   -1    0    0  502  501   0.0000000000E+00   0.0000000000E+00   2.2216545793E+02   2.2216545793E+02   0.0000000000E+00     0.000  -1.
   21   -1    0    0  501  502   0.0000000000E+00   0.0000000000E+00  -1.7582616292E+01   1.7582616292E+01   0.0000000000E+00     0.000  -1.
   25    2    1    2    0    0   0.0000000000E+00   0.0000000000E+00   2.0458284164E+02   2.3974807422E+02   1.2500000000E+02  4.689E-08  -1.
3000002    2    3    0    0    0  -2.2222183600E+01  -3.5837192972E+01   1.8866719540E+02   1.9358057873E+02   1.0000000000E+01  4.880E-10   1.
3000002    2    3    0    0    0   2.2222183600E+01   3.5837192972E+01   1.5915646243E+01   4.6167495485E+01   1.0000000000E+01  7.277E-10   1.
3000001    1    4    0    0    0  -4.0336077574E+00  -1.0697239887E+01   6.9414499423E+01   7.0356759895E+01   1.0000000000E+00     0.000  -1.
3000022   2   4   0   0   0   -1.8188575843E+01   -2.5139953085E+01   1.1925269597E+02   1.2322381884E+02   2.5000000000E-01   1.172659E+01   0.
3000001    1    5    0    0    0   1.5615285889E+01   2.4381895627E+01   1.5673424330E+01   3.2938886107E+01   1.0000000000E+00     0.000   1.
3000022   2   5   0   0   0   6.6068977109E+00   1.1455297345E+01   2.4222191295E-01   1.3228609378E+01   2.5000000000E-01   2.397608E-01   0.
13    1    7    0    0    0  -7.7302398854E+00  -1.0718925201E+01   5.0543966152E+01   5.2243234064E+01   1.0500000000E-01     0.000   1.
-13    1    7    0    0    0  -1.0458335957E+01  -1.4421027884E+01   6.8708729823E+01   7.0980584776E+01   1.0500000000E-01     0.000  -1.
13    1    9    0    0    0   3.6180447041E+00   6.1506876458E+00   1.5829322496E-01   7.1384373460E+00   1.0500000000E-01     0.000  -1.
-13    1    9    0    0    0   2.9888530067E+00   5.3046096990E+00   8.3928687983E-02   6.0901720320E+00   1.0500000000E-01     0.000   1.
</event>
<event>
 13   1  9.2978750E-05  1.2500000E+02  7.5467720E-03  1.2380620E-01
   21   -1    0    0  502  501   0.0000000000E+00   0.0000000000E+00   1.5670185361E+02   1.5670185361E+02   0.0000000000E+00     0.000  -1.
   21   -1    0    0  501  502   0.0000000000E+00   0.0000000000E+00  -2.4927911891E+01   2.4927911891E+01   0.0000000000E+00     0.000  -1.
   25    2    1    2    0    0   0.0000000000E+00   0.0000000000E+00   1.3177394172E+02   1.8162976550E+02   1.2500000000E+02  4.565E-09  -1.
3000002    2    3    0    0    0   5.3301510071E+01   2.6339867254E+01   8.9825103298E+01   1.0818220170E+02   1.0000000000E+01  9.502E-10  -1.
3000002    2    3    0    0    0  -5.3301510071E+01  -2.6339867254E+01   4.1948838422E+01   7.3447563797E+01   1.0000000000E+01  2.742E-10  -1.
3000001    1    4    0    0    0   4.8861102959E+01   2.0844502927E+01   7.7278536849E+01   9.3780983905E+01   1.0000000000E+00     0.000  -1.
3000022   2   4   0   0   0   4.4404071115E+00   5.4953643271E+00   1.2546566449E+01   1.4401217798E+01   2.5000000000E-01   2.865066E+00   0.
3000001    1    5    0    0    0  -2.1717476109E+00  -1.1363835199E-01   3.7386307165E+00   4.4392297749E+00   1.0000000000E+00     0.000   1.
3000022   2   5   0   0   0   -5.1129762460E+01   -2.6226228902E+01   3.8210207705E+01   6.9008334022E+01   2.5000000000E-01   3.375299E+00   0.
13    1    7    0    0    0   1.4544303567E+00   1.8842343710E+00   4.2520388313E+00   4.8740707884E+00   1.0500000000E-01     0.000  -1.
-13    1    7    0    0    0   2.9859767549E+00   3.6111299561E+00   8.2945276176E+00   9.5271470094E+00   1.0500000000E-01     0.000   1.
13    1    9    0    0    0  -1.5374937418E+01  -7.9178715178E+00   1.1543590802E+01   2.0792953219E+01   1.0500000000E-01     0.000   1.
-13    1    9    0    0    0  -3.5754825042E+01  -1.8308357385E+01   2.6666616904E+01   4.8215380803E+01   1.0500000000E-01     0.000  -1.
</event>
<event>
 13   1  9.2978750E-05  1.2500000E+02  7.5467720E-03  1.2380620E-01
   21   -1    0    0  502  501   0.0000000000E+00   0.0000000000E+00   4.9970413287E+01   4.9970413287E+01   0.0000000000E+00     0.000  -1.
   21   -1    0    0  501  502   0.0000000000E+00   0.0000000000E+00  -7.8171256610E+01   7.8171256610E+01   0.0000000000E+00     0.000  -1.
   25    2    1    2    0    0   0.0000000000E+00   0.0000000000E+00  -2.8200843323E+01   1.2814166990E+02   1.2500000000E+02  1.351E-07  -1.
3000002    2    3    0    0    0   5.5304869639E+01  -2.6887442757E+01  -1.9193881776E+01   6.5191780781E+01   1.0000000000E+01  1.705E-09   1.
3000002    2    3    0    0    0  -5.5304869639E+01   2.6887442757E+01  -9.0069615471E+00   6.2949889119E+01   1.0000000000E+01  1.187E-09   1.
3000001    1    4    0    0    0   4.5387837353E+01  -1.9366307489E+01  -1.1929060509E+01   5.0778067411E+01   1.0000000000E+00     0.000  -1.
3000022   2   4   0   0   0   9.9170322855E+00   -7.5211352677E+00   -7.2648212673E+00   1.4413713370E+01   2.5000000000E-01   8.084930E-01   0.
3000001    1    5    0    0    0  -1.8561818926E+01   4.3354115447E+00  -4.4294578272E+00   1.9594821044E+01   1.0000000000E+00     0.000  -1.
3000022   2   5   0   0   0   -3.6743050713E+01   2.2552031212E+01   -4.5775037199E+00   4.3355068075E+01   2.5000000000E-01   2.220905E+00   0.
13    1    7    0    0    0   3.2918209982E+00  -2.5629271527E+00  -2.4471723838E+00   4.8378051583E+00   1.0500000000E-01     0.000   1.
-13    1    7    0    0    0   6.6252112874E+00  -4.9582081150E+00  -4.8176488835E+00   9.5759082117E+00   1.0500000000E-01     0.000  -1.
13    1    9    0    0    0  -1.0590041448E+01   6.5460202048E+00  -1.3383815036E+00   1.2522046496E+01   1.0500000000E-01     0.000  -1.
-13    1    9    0    0    0  -2.6153009265E+01   1.6006011007E+01  -3.2391222163E+00   3.0833021579E+01   1.0500000000E-01     0.000   1.
</event>
<event>
 13   1  9.2978750E-05  1.2500000E+02  7.5467720E-03  1.2380620E-01
   21   -1    0    0  502  501   0.0000000000E+00   0.0000000000E+00   5.6450553331E+01   5.6450553331E+01   0.0000000000E+00     0.000  -1.
   21   -1    0    0  501  502   0.0000000000E+00   0.0000000000E+00  -6.9197727382E+01   6.9197727382E+01   0.0000000000E+00     0.000  -1.
   25    2    1    2    0    0   0.0000000000E+00   0.0000000000E+00  -1.2747174051E+01   1.2564828071E+02   1.2500000000E+02  6.597E-09  -1.
3000002    2    3    0    0    0   8.0014190783E+00   2.7339448213E+01   4.8634828368E+01   5.7243468329E+01   1.0000000000E+01  4.888E-10   1.
3000002    2    3    0    0    0  -8.0014190783E+00  -2.7339448213E+01  -6.1382002419E+01   6.8404812381E+01   1.0000000000E+01  9.614E-11   1.
3000001    1    4    0    0    0   6.6124569619E+00   1.3568215852E+01   3.3357450090E+01   3.6627046632E+01   1.0000000000E+00     0.000  -1.
3000022   2   4   0   0   0   1.3889621164E+00   1.3771232361E+01   1.5277378278E+01   2.0616421697E+01   2.5000000000E-01   6.785382E+00   0.
3000001    1    5    0    0    0  -7.7671738347E+00  -2.5206165551E+01  -4.7370532469E+01   5.4227733841E+01   1.0000000000E+00     0.000   1.
3000022   2   5   0   0   0   -2.3424524360E-01   -2.1332826622E+00   -1.4011469950E+01   1.4177078540E+01   2.5000000000E-01   1.993637E+01   0.
13    1    7    0    0    0   4.7285860545E-01   5.1202923072E+00   5.6149062586E+00   7.6144064683E+00   1.0500000000E-01     0.000  -1.
-13    1    7    0    0    0   9.1610351092E-01   8.6509400543E+00   9.6624720198E+00   1.3002015228E+01   1.0500000000E-01     0.000   1.
13    1    9    0    0    0  -1.1178179127E-01  -1.3104528393E+00  -8.9101920769E+00   9.0073486476E+00   1.0500000000E-01     0.000   1.
-13    1    9    0    0    0  -1.2246345233E-01  -8.2282982291E-01  -5.1012778735E+00   5.1697298921E+00   1.0500000000E-01     0.000  -1.
</event>
<event>
 13   1  9.2978750E-05  1.2500000E+02  7.5467720E-03  1.2380620E-01
   21   -1    0    0  502  501   0.0000000000E+00   0.0000000000E+00   2.7151072472E+01   2.7151072472E+01   0.0000000000E+00     0.000  -1.
   21   -1    0    0  501  502   0.0000000000E+00   0.0000000000E+00  -1.4387092827E+02   1.4387092827E+02   0.0000000000E+00     0.000  -1.
   25    2    1    2    0    0   0.0000000000E+00   0.0000000000E+00  -1.1671985580E+02   1.7102200074E+02   1.2500000000E+02  3.729E-08  -1.
3000002    2    3    0    0    0   2.9126546460E+01   2.0945900679E+01  -1.2703041856E+02   1.3237754230E+02   1.0000000000E+01  1.141E-09   1.
3000002    2    3    0    0    0  -2.9126546460E+01  -2.0945900679E+01   1.0310562763E+01   3.8644458444E+01   1.0000000000E+01  7.509E-10   1.
3000001    1    4    0    0    0   2.1143785122E+01   1.9093454514E+01  -8.8247064101E+01   9.2737069055E+01   1.0000000000E+00     0.000  -1.
3000022   2   4   0   0   0   7.9827613384E+00   1.8524461649E+00   -3.8783354463E+01   3.9640473241E+01   2.5000000000E-01   5.634779E+00   0.
3000001    1    5    0    0    0  -3.7548091357E+00  -1.6415951195E+00  -1.7377145520E+00   4.5621352508E+00   1.0000000000E+00     0.000  -1.
3000022   2   5   0   0   0   -2.5371737324E+01   -1.9304305559E+01   1.2048277315E+01   3.4082323193E+01   2.5000000000E-01   1.906692E+00   0.
13    1    7    0    0    0   4.5494852540E+00   9.8909767899E-01  -2.2077056546E+01   2.2562880601E+01   1.0500000000E-01     0.000   1.
-13    1    7    0    0    0   3.4332760844E+00   8.6334848594E-01  -1.6706297917E+01   1.7077592640E+01   1.0500000000E-01     0.000  -1.
13    1    9    0    0    0  -1.4602613867E+01  -1.1046814064E+01   6.9635761054E+00   1.9590070186E+01   1.0500000000E-01     0.000   1.
-13    1    9    0    0    0  -1.0769123457E+01  -8.2574914956E+00   5.0847012099E+00   1.4492253007E+01   1.0500000000E-01     0.000  -1.
</event>
<event>
 13   1  9.2978750E-05  1.2500000E+02  7.5467720E-03  1.2380620E-01
   21   -1    0    0  502  501   0.0000000000E+00   0.0000000000E+00   5.4493566031E+00   5.4493566031E+00   0.0000000000E+00     0.000   1.
   21   -1    0    0  501  502   0.0000000000E+00   0.0000000000E+00  -7.1682774398E+02   7.1682774398E+02   0.0000000000E+00     0.000   1.
   25    2    1    2    0    0   0.0000000000E+00   0.0000000000E+00  -7.1137838738E+02   7.2227710059E+02   1.2500000000E+02  1.576E-08  -1.
3000002    2    3    0    0    0  -4.7148558889E+01   2.2442835207E+01  -1.6583431583E+02   1.7414846472E+02   1.0000000000E+01  1.202E-10  -1.
3000002    2    3    0    0    0   4.7148558889E+01  -2.2442835207E+01  -5.4554407155E+02   5.4812863587E+02   1.0000000000E+01  3.761E-10  -1.
3000001    1    4    0    0    0  -1.7577632383E+01   5.3275168403E+00  -4.6096348871E+01   4.9630927607E+01   1.0000000000E+00     0.000  -1.
3000022   2   4   0   0   0   -2.9570926506E+01   1.7115318366E+01   -1.1973796695E+02   1.2451753711E+02   2.5000000000E-01   1.163234E+01   0.
3000001    1    5    0    0    0   5.9829820701E+00  -6.7906528398E+00  -8.8012854067E+01   8.8482605756E+01   1.0000000000E+00     0.000   1.
3000022   2   5   0   0   0   4.1165576819E+01   -1.5652182367E+01   -4.5753121749E+02   4.5964603012E+02   2.5000000000E-01   1.011607E+01   0.
13    1    7    0    0    0  -2.0515432240E+01   1.1819432595E+01  -8.2952141986E+01   8.6265003518E+01   1.0500000000E-01     0.000  -1.
-13    1    7    0    0    0  -9.0554942658E+00   5.2958857710E+00  -3.6785824967E+01   3.8252533590E+01   1.0500000000E-01     0.000   1.
13    1    9    0    0    0   2.1257213526E+01  -8.0241608547E+00  -2.3562720050E+02   2.3672018276E+02   1.0500000000E-01     0.000   1.
-13    1    9    0    0    0   1.9908363292E+01  -7.6280215122E+00  -2.2190401699E+02   2.2292584736E+02   1.0500000000E-01     0.000  -1.
</event>
<event>
 13   1  9.2978750E-05  1.2500000E+02  7.5467720E-03  1.2380620E-01
   21   -1    0    0  502  501   0.0000000000E+00   0.0000000000E+00   9.0561344453E+01   9.0561344453E+01   0.0000000000E+00     0.000   1.
   21   -1    0    0  501  502   0.0000000000E+00   0.0000000000E+00  -4.3133745679E+01   4.3133745679E+01   0.0000000000E+00     0.000   1.
   25    2    1    2    0    0   0.0000000000E+00   0.0000000000E+00   4.7427598774E+01   1.3369509013E+02   1.2500000000E+02  4.640E-08  -1.
3000002    2    3    0    0    0   4.8156536874E+01  -3.0705360386E+01  -1.2411128702E+00   5.7994927031E+01   1.0000000000E+01  3.045E-10   1.
3000002    2    3    0    0    0  -4.8156536874E+01   3.0705360386E+01   4.8668711644E+01   7.5700163099E+01   1.0000000000E+01  3.167E-10   1.
3000001    1    4    0    0    0   2.9213726855E+01  -1.8566102434E+01   4.0973537541E+00   3.4870192201E+01   1.0000000000E+00     0.000   1.
3000022   2   4   0   0   0   1.8942810020E+01   -1.2139257952E+01   -5.3384666244E+00   2.3124734830E+01   2.5000000000E-01   3.773076E+00   0.
3000001    1    5    0    0    0  -2.0436100276E+01   1.7828410619E+01   1.9213440410E+01   3.3251206174E+01   1.0000000000E+00     0.000   1.
3000022   2   5   0   0   0   -2.7720436599E+01   1.2876949767E+01   2.9455271234E+01   4.2448956925E+01   2.5000000000E-01   2.968870E+00   0.
13    1    7    0    0    0   9.9542422542E+00  -6.3032641446E+00  -2.7727542229E+00   1.2104431780E+01   1.0500000000E-01     0.000   1.
-13    1    7    0    0    0   8.9885677654E+00  -5.8359938076E+00  -2.5657124015E+00   1.1020303050E+01   1.0500000000E-01     0.000  -1.
13    1    9    0    0    0  -1.2936021368E+01   6.0640148105E+00   1.3704925936E+01   1.9797700482E+01   1.0500000000E-01     0.000   1.
-13    1    9    0    0    0  -1.4784415231E+01   6.8129349566E+00   1.5750345298E+01   2.2651256443E+01   1.0500000000E-01     0.000  -1.
</event>
<event>
 13   1  9.2978750E-05  1.2500000E+02  7.5467720E-03  1.2380620E-01
   21   -1    0    0  502  501   0.0000000000E+00   0.0000000000E+00   2.4451813222E+01   2.4451813222E+01   0.0000000000E+00     0.000   1.
   21   -1    0    0  501  502   0.0000000000E+00   0.0000000000E+00  -1.5975297883E+02   1.5975297883E+02   0.0000000000E+00     0.000   1.
   25    2    1    2    0    0   0.0000000000E+00   0.0000000000E+00  -1.3530116561E+02   1.8420479205E+02   1.2500000000E+02  1.872E-08  -1.
3000002    2    3    0    0    0  -9.7499071693E+00  -5.9982633665E+01  -5.1966683256E+01   8.0582338014E+01   1.0000000000E+01  5.729E-10  -1.
3000002    2    3    0    0    0   9.7499071693E+00   5.9982633665E+01  -8.3334482354E+01   1.0362245404E+02   1.0000000000E+01  4.565E-10  -1.
3000001    1    4    0    0    0   6.9048239892E-01  -1.3870225009E+01  -8.2236282116E+00   1.6170589621E+01   1.0000000000E+00     0.000  -1.
3000022   2   4   0   0   0   -1.0440389568E+01   -4.6112408656E+01   -4.3743055044E+01   6.4411748393E+01   2.5000000000E-01   1.388335E+01   0.
3000001    1    5    0    0    0   1.0037412089E+01   5.2527338619E+01  -6.7551337964E+01   8.6162951461E+01   1.0000000000E+00     0.000  -1.
3000022   2   5   0   0   0   -2.8750491958E-01   7.4552950457E+00   -1.5783144391E+01   1.7459502575E+01   2.5000000000E-01   8.713082E+00   0.
13    1    7    0    0    0  -3.1758936904E+00  -1.3822390771E+01  -1.3111645157E+01   1.9315047271E+01   1.0500000000E-01     0.000   1.
-13    1    7    0    0    0  -7.2644958778E+00  -3.2290017886E+01  -3.0631409887E+01   4.5096701122E+01   1.0500000000E-01     0.000  -1.
13    1    9    0    0    0  -1.2361944820E-01   2.6423004747E+00  -5.7221281319E+00   6.3048242580E+00   1.0500000000E-01     0.000  -1.
-13    1    9    0    0    0  -1.6388547138E-01   4.8129945710E+00  -1.0061016259E+01   1.1154678317E+01   1.0500000000E-01     0.000   1.
</event>
<event>
 13   1  9.2978750E-05  1.2500000E+02  7.5467720E-03  1.2380620E-01
   21   -1    0    0  502  501   0.0000000000E+00   0.0000000000E+00   2.5935472218E+02   2.5935472218E+02   0.0000000000E+00     0.000   1.
   21   -1    0    0  501  502   0.0000000000E+00   0.0000000000E+00  -1.5061418459E+01   1.5061418459E+01   0.0000000000E+00     0.000   1.
   25    2    1    2    0    0   0.0000000000E+00   0.0000000000E+00   2.4429330372E+02   2.7441614064E+02   1.2500000000E+02  3.669E-08  -1.
3000002    2    3    0    0    0   3.9022273341E+01   1.6920646909E+01   2.2025610184E+02   2.2454798263E+02   1.0000000000E+01  1.813E-09   1.
3000002    2    3    0    0    0  -3.9022273341E+01  -1.6920646909E+01   2.4037201883E+01   4.9868158006E+01   1.0000000000E+01  5.656E-11   1.
3000001    1    4    0    0    0   3.9075229336E+01   1.5607968675E+01   2.1668159226E+02   2.2073149902E+02   1.0000000000E+00     0.000   1.
3000022   2   4   0   0   0   -5.2955994535E-02   1.3126782341E+00   3.5745095731E+00   3.8164836134E+00   2.5000000000E-01   3.463983E+00   0.
3000001    1    5    0    0    0  -1.7659548409E+01  -2.6150948415E+00   8.2016624164E+00   1.9671442180E+01   1.0000000000E+00     0.000   1.
3000022   2   5   0   0   0   -2.1362724932E+01   -1.4305552067E+01   1.5835539466E+01   3.0196715826E+01   2.5000000000E-01   6.055723E+00   0.
13    1    7    0    0    0   2.2553468205E-02   3.8433380500E-01   1.1344218311E+00   1.2025635216E+00   1.0500000000E-01     0.000   1.
-13    1    7    0    0    0  -7.5509462740E-02   9.2834442912E-01   2.4400877419E+00   2.6139200918E+00   1.0500000000E-01     0.000  -1.
13    1    9    0    0    0  -1.5899469610E+01  -1.0673311976E+01   1.1817280974E+01   2.2502708215E+01   1.0500000000E-01     0.000  -1.
-13    1    9    0    0    0  -5.4632553224E+00  -3.6322400916E+00   4.0182584927E+00   7.6940076108E+00   1.0500000000E-01     0.000   1.
</event>
<event>
 13   1  9.2978750E-05  1.2500000E+02  7.5467720E-03  1.2380620E-01
   21   -1    0    0  502  501   0.0000000000E+00   0.0000000000E+00   2.1429001422E+02   2.1429001422E+02   0.0000000000E+00     0.000  -1.
   21   -1    0    0  501  502   0.0000000000E+00   0.0000000000E+00  -1.8228800881E+01   1.8228800881E+01   0.0000000000E+00     0.000  -1.
   25    2    1    2    0    0   0.0000000000E+00   0.0000000000E+00   1.9606121334E+02   2.3251881510E+02   1.2500000000E+02  9.995E-08  -1.
3000002    2    3    0    0    0  -9.2818877182E-01   6.1573604426E+01   9.1050776722E+01   1.1037397446E+02   1.0000000000E+01  3.648E-11   1.
3000002    2    3    0    0    0   9.2818877182E-01  -6.1573604426E+01   1.0501043662E+02   1.2214484064E+02   1.0000000000E+01  6.577E-10   1.
3000001    1    4    0    0    0  -2.9329863129E+00   1.0436813206E+01   1.1992544821E+01   1.6197240811E+01   1.0000000000E+00     0.000  -1.
3000022   2   4   0   0   0   2.0047975410E+00   5.1136791219E+01   7.9058231901E+01   9.4176733648E+01   2.5000000000E-01   3.962440E+00   0.
3000001    1    5    0    0    0  -1.4327223863E-01  -1.2313990155E+01   1.4153414509E+01   1.8787602900E+01   1.0000000000E+00     0.000   1.
3000022   2   5   0   0   0   1.0714610104E+00   -4.9259614271E+01   9.0857022109E+01   1.0335723774E+02   2.5000000000E-01   2.793526E+00   0.
13    1    7    0    0    0   1.0203901147E+00   2.4923873214E+01   3.8631319337E+01   4.5985111838E+01   1.0500000000E-01     0.000  -1.
-13    1    7    0    0    0   9.8440742630E-01   2.6212918005E+01   4.0426912563E+01   4.8191621811E+01   1.0500000000E-01     0.000   1.
13    1    9    0    0    0   8.2479506096E-01  -3.7564516328E+01   6.9253773626E+01   7.8790033382E+01   1.0500000000E-01     0.000   1.
-13    1    9    0    0    0   2.4666594949E-01  -1.1695097943E+01   2.1603248482E+01   2.4567204358E+01   1.0500000000E-01     0.000  -1.
</event>
<event>
 13   1  9.2978750E-05  1.2500000E+02  7.5467720E-03  1.2380620E-01
   21   -1    0    0  502  501   0.0000000000E+00   0.0000000000E+00   4.5071444740E+01   4.5071444740E+01   0.0000000000E+00     0.000   1.
   21   -1    0    0  501  502   0.0000000000E+00   0.0000000000E+00  -8.6667956231E+01   8.6667956231E+01   0.0000000000E+00     0.000   1.
   25    2    1    2    0    0   0.0000000000E+00   0.0000000000E+00  -4.1596511492E+01   1.3173940097E+02   1.2500000000E+02  2.157E-08  -1.
3000002    2    3    0    0    0  -3.7338476955E+01   4.6312727636E+01  -3.5700653935E+00   6.0429926107E+01   1.0000000000E+01  1.136E-09  -1.
3000002    2    3    0    0    0   3.7338476955E+01  -4.6312727636E+01  -3.8026446098E+01   7.1309474863E+01   1.0000000000E+01  6.757E-10  -1.
3000001    1    4    0    0    0  -6.7841357657E+00   7.2859654616E+00  -4.2233745231E+00   1.0860326107E+01   1.0000000000E+00     0.000   1.
3000022   2   4   0   0   0   -3.0554341189E+01   3.9026762174E+01   6.5330912952E-01   4.9569600000E+01   2.5000000000E-01   2.461932E+00   0.
3000001    1    5    0    0    0   7.4829052130E+00  -1.6420496870E+01  -1.1082316628E+01   2.1200102116E+01   1.0000000000E+00     0.000  -1.
3000022   2   5   0   0   0   2.9855571742E+01   -2.9892230766E+01   -2.6944129470E+01   5.0109372747E+01   2.5000000000E-01   2.758398E+00   0.
13    1    7    0    0    0  -1.6398672227E+01   2.0849440520E+01   3.8109169189E-01   2.6528699114E+01   1.0500000000E-01     0.000  -1.
-13    1    7    0    0    0  -1.4155668962E+01   1.8177321654E+01   2.7221743763E-01   2.3040900886E+01   1.0500000000E-01     0.000   1.
13    1    9    0    0    0   2.1291151656E+01  -2.1257486413E+01  -1.9186425217E+01   3.5683663000E+01   1.0500000000E-01     0.000   1.
-13    1    9    0    0    0   8.5644200860E+00  -8.6347443524E+00  -7.7577042529E+00   1.4425709747E+01   1.0500000000E-01     0.000  -1.
</event>
<event>
 13   1  9.2978750E-05  1.2500000E+02  7.5467720E-03  1.2380620E-01
   21   -1    0    0  502  501   0.0000000000E+00   0.0000000000E+00   2.9137158134E+01   2.9137158134E+01   0.0000000000E+00     0.000  -1.
   21   -1    0    0  501  502   0.0000000000E+00   0.0000000000E+00  -1.3406420702E+02   1.3406420702E+02   0.0000000000E+00     0.000  -1.
   25    2    1    2    0    0   0.0000000000E+00   0.0000000000E+00  -1.0492704889E+02   1.6320136515E+02   1.2500000000E+02  2.678E-09  -1.
3000002    2    3    0    0    0  -1.5549647481E+01   5.9678858409E+01  -5.4683954382E+01   8.3028263529E+01   1.0000000000E+01  9.205E-11   1.
3000002    2    3    0    0    0   1.5549647481E+01  -5.9678858409E+01  -5.0243094508E+01   8.0173101621E+01   1.0000000000E+01  1.353E-09   1.
3000001    1    4    0    0    0  -6.6367847094E+00   3.1934875325E+01  -3.5051965438E+01   4.7890744976E+01   1.0000000000E+00     0.000   1.
3000022   2   4   0   0   0   -8.9128627711E+00   2.7743983084E+01   -1.9631988944E+01   3.5137518553E+01   2.5000000000E-01   1.610938E+00   0.
3000001    1    5    0    0    0   9.3281322577E+00  -4.8534364317E+01  -4.2858607474E+01   6.5425215366E+01   1.0000000000E+00     0.000  -1.
3000022   2   5   0   0   0   6.2215152228E+00   -1.1144494092E+01   -7.3844870345E+00   1.4747886255E+01   2.5000000000E-01   1.373407E+01   0.
13    1    7    0    0    0  -5.2837351859E+00   1.6455631268E+01  -1.1566769003E+01   2.0796798506E+01   1.0500000000E-01     0.000   1.
-13    1    7    0    0    0  -3.6291275852E+00   1.1288351816E+01  -8.0652199410E+00   1.4340720047E+01   1.0500000000E-01     0.000  -1.
13    1    9    0    0    0   3.0898829546E+00  -5.5400985732E+00  -3.7484169390E+00   7.3689703095E+00   1.0500000000E-01     0.000  -1.
-13    1    9    0    0    0   3.1316322682E+00  -5.6043955189E+00  -3.6360700954E+00   7.3789159458E+00   1.0500000000E-01     0.000   1.
</event>
<event>
 13   1  9.2978750E-05  1.2500000E+02  7.5467720E-03  1.2380620E-01
   21   -1    0    0  502  501   0.0000000000E+00   0.0000000000E+00   1.1576161757E+01   1.1576161757E+01   0.0000000000E+00     0.000   1.
   21   -1    0    0  501  502   0.0000000000E+00   0.0000000000E+00  -3.3743913415E+02   3.3743913415E+02   0.0000000000E+00     0.000   1.
   25    2    1    2    0    0   0.0000000000E+00   0.0000000000E+00  -3.2586297239E+02   3.4901529591E+02   1.2500000000E+02  5.018E-08  -1.
3000002    2    3    0    0    0   1.8367534776E+01   2.4093706921E+00   1.3791291147E+00   2.1096762737E+01   1.0000000000E+01  1.283E-10   1.
3000002    2    3    0    0    0  -1.8367534776E+01  -2.4093706921E+00  -3.2724210150E+02   3.2791853317E+02   1.0000000000E+01  1.000E-10   1.
3000001    1    4    0    0    0   1.2905250348E+01   4.0401655222E-01   5.3879113860E+00   1.4026343252E+01   1.0000000000E+00     0.000  -1.
3000022   2   4   0   0   0   5.4622844276E+00   2.0053541398E+00   -4.0087822713E+00   7.0704194850E+00   2.5000000000E-01   2.854340E-01   0.
3000001    1    5    0    0    0  -1.6088026643E+01   6.2345705866E-01  -2.1161600267E+02   2.1222993636E+02   1.0000000000E+00     0.000  -1.
3000022   2   5   0   0   0   -2.2795081330E+00   -3.0328277507E+00   -1.1562609883E+02   1.1568859681E+02   2.5000000000E-01   1.821184E+01   0.
13    1    7    0    0    0   3.7071475950E+00   1.3669467358E+00  -2.7823075946E+00   4.8336060266E+00   1.0500000000E-01     0.000   1.
-13    1    7    0    0    0   1.7551368326E+00   6.3840740408E-01  -1.2264746768E+00   2.2368134584E+00   1.0500000000E-01     0.000  -1.
13    1    9    0    0    0  -9.9051540199E-01  -1.2692501585E+00  -4.7325078517E+01   4.7352573303E+01   1.0500000000E-01     0.000  -1.
-13    1    9    0    0    0  -1.2889927311E+00  -1.7635775922E+00  -6.8301020313E+01   6.8336023509E+01   1.0500000000E-01     0.000   1.
</event>
<event>
 13   1  9.2978750E-05  1.2500000E+02  7.5467720E-03  1.2380620E-01
   21   -1    0    0  502  501   0.0000000000E+00   0.0000000000E+00   2.0980478653E+01   2.0980478653E+01   0.0000000000E+00     0.000   1.
   21   -1    0    0  501  502   0.0000000000E+00   0.0000000000E+00  -1.8618498008E+02   1.8618498008E+02   0.0000000000E+00     0.000   1.
   25    2    1    2    0    0   0.0000000000E+00   0.0000000000E+00  -1.6520450143E+02   2.0716545873E+02   1.2500000000E+02  4.565E-08  -1.
3000002    2    3    0    0    0  -7.1820112914E+00   1.3508498350E+01  -1.8165683022E+02   1.8257399809E+02   1.0000000000E+01  4.727E-10  -1.
3000002    2    3    0    0    0   7.1820112914E+00  -1.3508498350E+01   1.6452328788E+01   2.4591460640E+01   1.0000000000E+01  1.538E-10  -1.
3000001    1    4    0    0    0  -4.2302560173E+00   4.4954132166E-01  -2.8525179884E+01   2.8857980539E+01   1.0000000000E+00     0.000   1.
3000022   2   4   0   0   0   -2.9517552741E+00   1.3058957028E+01   -1.5313165033E+02   1.5371601755E+02   2.5000000000E-01   5.467028E+00   0.
3000001    1    5    0    0    0   5.3591491202E+00  -1.0916413227E+01   5.8671039215E+00   1.3539256459E+01   1.0000000000E+00     0.000   1.
3000022   2   5   0   0   0   1.8228621711E+00   -2.5920851223E+00   1.0585224866E+01   1.1052204181E+01   2.5000000000E-01   2.122244E-01   0.
13    1    7    0    0    0  -1.4479640934E+00   6.1526184501E+00  -7.2726840722E+01   7.3001066432E+01   1.0500000000E-01     0.000   1.
-13    1    7    0    0    0  -1.5037911807E+00   6.9063385778E+00  -8.0404809611E+01   8.0714951119E+01   1.0500000000E-01     0.000  -1.
13    1    9    0    0    0   1.2601999297E+00  -1.6990312675E+00   7.0486817845E+00   7.3600102588E+00   1.0500000000E-01     0.000  -1.
-13    1    9    0    0    0   5.6266224148E-01  -8.9305385484E-01   3.5365430818E+00   3.6921939217E+00   1.0500000000E-01     0.000   1.
</event>
<event>
 13   1  9.2978750E-05  1.2500000E+02  7.5467720E-03  1.2380620E-01
   21   -1    0    0  502  501   0.0000000000E+00   0.0000000000E+00   3.2618868491E+01   3.2618868491E+01   0.0000000000E+00     0.000  -1.
   21   -1    0    0  501  502   0.0000000000E+00   0.0000000000E+00  -1.1975430727E+02   1.1975430727E+02   0.0000000000E+00     0.000  -1.
   25    2    1    2    0    0   0.0000000000E+00   0.0000000000E+00  -8.7135438778E+01   1.5237317576E+02   1.2500000000E+02  3.413E-08  -1.
3000002    2    3    0    0    0  -3.3403882470E+01  -2.3819846424E+01  -9.9734322940E+01   1.0830576910E+02   1.0000000000E+01  5.289E-12  -1.
3000002    2    3    0    0    0   3.3403882470E+01   2.3819846424E+01   1.2598884162E+01   4.4067406661E+01   1.0000000000E+01  4.781E-10  -1.
3000001    1    4    0    0    0  -2.1960200335E+01  -1.0522285513E+01  -6.4342504340E+01   6.8803537379E+01   1.0000000000E+00     0.000   1.
3000022   2   4   0   0   0   -1.1443682135E+01   -1.3297560911E+01   -3.5391818600E+01   3.9502231719E+01   2.5000000000E-01   3.322547E+00   0.
3000001    1    5    0    0    0   3.0521612489E+01   1.7806438646E+01   1.2146964916E+01   3.7378962571E+01   1.0000000000E+00     0.000  -1.
3000022   2   5   0   0   0   2.8822699807E+00   6.0134077783E+00   4.5191924601E-01   6.6884440907E+00   2.5000000000E-01   1.899067E+01   0.
13    1    7    0    0    0  -6.5939607741E+00  -7.6614368673E+00  -2.0244868076E+01   2.2628381338E+01   1.0500000000E-01     0.000  -1.
-13    1    7    0    0    0  -4.8497213608E+00  -5.6361240432E+00  -1.5146950524E+01   1.6873850381E+01   1.0500000000E-01     0.000   1.
13    1    9    0    0    0   1.3720684167E+00   2.8414084325E+00   2.8087159444E-01   3.1695563527E+00   1.0500000000E-01     0.000   1.
-13    1    9    0    0    0   1.5102015640E+00   3.1719993458E+00   1.7104765157E-01   3.5188877380E+00   1.0500000000E-01     0.000  -1.
</event>
<event>
 13   1  9.2978750E-05  1.2500000E+02  7.5467720E-03  1.2380620E-01
   21   -1    0    0  502  501   0.0000000000E+00   0.0000000000E+00   2.7188964374E+01   2.7188964374E+01   0.0000000000E+00     0.000   1.
   21   -1    0    0  501  502   0.0000000000E+00   0.0000000000E+00  -1.4367042254E+02   1.4367042254E+02   0.0000000000E+00     0.000   1.
   25    2    1    2    0    0   0.0000000000E+00   0.0000000000E+00  -1.1648145817E+02   1.7085938691E+02   1.2500000000E+02  1.220E-08  -1.
3000002    2    3    0    0    0  -1.6184357214E+01   2.3180331740E+01   1.6713257393E+01   3.4330659340E+01   1.0000000000E+01  8.878E-10   1.
3000002    2    3    0    0    0   1.6184357214E+01  -2.3180331740E+01  -1.3319471556E+02   1.3652872757E+02   1.0000000000E+01  1.354E-10   1.
3000001    1    4    0    0    0  -2.0052668377E+00  -5.7721334663E-01   1.1162942318E+00   2.5691210850E+00   1.0000000000E+00     0.000  -1.
3000022   2   4   0   0   0   -1.4179090376E+01   2.3757545086E+01   1.5596963162E+01   3.1761538255E+01   2.5000000000E-01   2.416368E-01   0.
3000001    1    5    0    0    0   8.7497002058E+00  -1.6700079800E+01  -6.7242412009E+01   6.9842622315E+01   1.0000000000E+00     0.000  -1.
3000022   2   5   0   0   0   7.4346570082E+00   -6.4802519393E+00   -6.5952303554E+01   6.6686105255E+01   2.5000000000E-01   1.216654E+01   0.
13    1    7    0    0    0  -1.0839658379E+01   1.8179133343E+01   1.1944830435E+01   2.4303684535E+01   1.0500000000E-01     0.000   1.
-13    1    7    0    0    0  -3.3394319977E+00   5.5784117435E+00   3.6521327270E+00   7.4578537196E+00   1.0500000000E-01     0.000  -1.
13    1    9    0    0    0   4.9425933060E+00  -4.2379387221E+00  -4.3626157597E+01   4.4109432153E+01   1.0500000000E-01     0.000   1.
-13    1    9    0    0    0   2.4920637021E+00  -2.2423132172E+00  -2.2326145958E+01   2.2576673103E+01   1.0500000000E-01     0.000  -1.
</event>
<event>
 13   1  9.2978750E-05  1.2500000E+02  7.5467720E-03  1.2380620E-01
   21   -1    0    0  502  501   0.0000000000E+00   0.0000000000E+00   3.5264741847E+01   3.5264741847E+01   0.0000000000E+00     0.000  -1.
   21   -1    0    0  501  502   0.0000000000E+00   0.0000000000E+00  -1.1076927819E+02   1.1076927819E+02   0.0000000000E+00     0.000  -1.
   25    2    1    2    0    0   0.0000000000E+00   0.0000000000E+00  -7.5504536343E+01   1.4603402004E+02   1.2500000000E+02  2.064E-08  -1.
3000002    2    3    0    0    0  -4.0852816006E+01   4.4839072833E+01  -2.4599216402E+01   6.6216436598E+01   1.0000000000E+01  2.344E-09  -1.
3000002    2    3    0    0    0   4.0852816006E+01  -4.4839072833E+01  -5.0905319941E+01   7.9817583442E+01   1.0000000000E+01  1.694E-10  -1.
3000001    1    4    0    0    0  -2.0730341778E+01   2.9878963140E+01  -1.3686872727E+01   3.8869396620E+01   1.0000000000E+00     0.000  -1.
3000022   2   4   0   0   0   -2.0122474228E+01   1.4960109693E+01   -1.0912343675E+01   2.7347039978E+01   2.5000000000E-01   7.343167E-01   0.
3000001    1    5    0    0    0   2.2956380143E+01  -2.1808777377E+01  -2.0787194443E+01   3.7890970069E+01   1.0000000000E+00     0.000  -1.
3000022   2   5   0   0   0   1.7896435864E+01   -2.3030295456E+01   -3.0118125498E+01   4.1926613373E+01   2.5000000000E-01   9.113670E+00   0.
13    1    7    0    0    0  -8.1706387403E+00   6.0732180686E+00  -4.3613020446E+00   1.1075888030E+01   1.0500000000E-01     0.000   1.
-13    1    7    0    0    0  -1.1951835488E+01   8.8868916249E+00  -6.5510416303E+00   1.6271151948E+01   1.0500000000E-01     0.000  -1.
13    1    9    0    0    0   8.2228871302E+00  -1.0643096859E+01  -1.3968390122E+01   1.9391192101E+01   1.0500000000E-01     0.000   1.
-13    1    9    0    0    0   9.6735487335E+00  -1.2387198597E+01  -1.6149735376E+01   2.2535421272E+01   1.0500000000E-01     0.000  -1.
</event>
<event>
 13   1  9.2978750E-05  1.2500000E+02  7.5467720E-03  1.2380620E-01
   21   -1    0    0  502  501   0.0000000000E+00   0.0000000000E+00   6.5276646912E+01   6.5276646912E+01   0.0000000000E+00     0.000   1.
   21   -1    0    0  501  502   0.0000000000E+00   0.0000000000E+00  -5.9841462220E+01   5.9841462220E+01   0.0000000000E+00     0.000   1.
   25    2    1    2    0    0   0.0000000000E+00   0.0000000000E+00   5.4351846924E+00   1.2511810913E+02   1.2500000000E+02  7.101E-08  -1.
3000002    2    3    0    0    0  -1.8717176463E+01   1.9589368420E+00  -5.6092326103E+01   6.0004326311E+01   1.0000000000E+01  2.598E-10  -1.
3000002    2    3    0    0    0   1.8717176463E+01  -1.9589368420E+00   6.1527510796E+01   6.5113782819E+01   1.0000000000E+01  1.428E-10  -1.
3000001    1    4    0    0    0  -1.4559115566E+01  -1.6086443645E+00  -3.0748100366E+01   3.4073468548E+01   1.0000000000E+00     0.000  -1.
3000022   2   4   0   0   0   -4.1580608971E+00   3.5675812066E+00   -2.5344225738E+01   2.5930857763E+01   2.5000000000E-01   2.055457E+00   0.
3000001    1    5    0    0    0   4.6999227945E+00   3.4047468157E+00   1.2095540272E+01   1.3453017120E+01   1.0000000000E+00     0.000   1.
3000022   2   5   0   0   0   1.4017253669E+01   -5.3636836577E+00   4.9431970524E+01   5.1660765699E+01   2.5000000000E-01   1.343498E+00   0.
13    1    7    0    0    0  -1.4712444738E+00   1.2509827146E+00  -9.2073156924E+00   9.4082519797E+00   1.0500000000E-01     0.000  -1.
-13    1    7    0    0    0  -2.6868164233E+00   2.3165984920E+00  -1.6136910045E+01   1.6522605783E+01   1.0500000000E-01     0.000   1.
13    1    9    0    0    0   8.8080091910E+00  -3.3098914225E+00   3.1057640340E+01   3.2451879077E+01   1.0500000000E-01     0.000  -1.
-13    1    9    0    0    0   5.2092444779E+00  -2.0537922352E+00   1.8374330184E+01   1.9208886622E+01   1.0500000000E-01     0.000   1.
</event>
<event>
 13   1  9.2978750E-05  1.2500000E+02  7.5467720E-03  1.2380620E-01
   21   -1    0    0  502  501   0.0000000000E+00   0.0000000000E+00   7.9426482408E+01   7.9426482408E+01   0.0000000000E+00     0.000  -1.
   21   -1    0    0  501  502   0.0000000000E+00   0.0000000000E+00  -4.9180699957E+01   4.9180699957E+01   0.0000000000E+00     0.000  -1.
   25    2    1    2    0    0   0.0000000000E+00   0.0000000000E+00   3.0245782451E+01   1.2860718237E+02   1.2500000000E+02  8.561E-09  -1.
3000002    2    3    0    0    0   1.6179626262E+01   2.4946963936E+01   7.0739452854E+01   7.7383470494E+01   1.0000000000E+01  5.805E-10  -1.
3000002    2    3    0    0    0  -1.6179626262E+01  -2.4946963936E+01  -4.0493670403E+01   5.1223711876E+01   1.0000000000E+01  1.549E-10  -1.
3000001    1    4    0    0    0   1.8087987130E+00   8.9059198619E+00   1.4287870244E+01   1.6962617648E+01   1.0000000000E+00     0.000  -1.
3000022   2   4   0   0   0   1.4370827549E+01   1.6041044074E+01   5.6451582610E+01   6.0420852846E+01   2.5000000000E-01   1.526863E+01   0.
3000001    1    5    0    0    0  -9.9059731384E+00  -6.5529541393E+00  -1.4616177126E+01   1.8860067485E+01   1.0000000000E+00     0.000   1.
3000022   2   5   0   0   0   -6.2736531232E+00   -1.8394009797E+01   -2.5877493277E+01   3.2363644391E+01   2.5000000000E-01   4.567221E+00   0.
13    1    7    0    0    0   9.5048993209E+00   1.0553936683E+01   3.7114033954E+01   3.9739039142E+01   1.0500000000E-01     0.000  -1.
-13    1    7    0    0    0   4.8659282277E+00   5.4871073911E+00   1.9337548656E+01   2.0681813704E+01   1.0500000000E-01     0.000   1.
13    1    9    0    0    0  -4.5921543584E+00  -1.3490680933E+01  -1.8918509472E+01   2.3685594342E+01   1.0500000000E-01     0.000   1.
-13    1    9    0    0    0  -1.6814987648E+00  -4.9033288638E+00  -6.9589838052E+00   8.6780500485E+00   1.0500000000E-01     0.000  -1.
</event>
<event>
 13   1  9.2978750E-05  1.2500000E+02  7.5467720E-03  1.2380620E-01
   21   -1    0    0  502  501   0.0000000000E+00   0.0000000000E+00   1.7945816327E+02   1.7945816327E+02   0.0000000000E+00     0.000  -1.
   21   -1    0    0  501  502   0.0000000000E+00   0.0000000000E+00  -2.1766911734E+01   2.1766911734E+01   0.0000000000E+00     0.000  -1.
   25    2    1    2    0    0   0.0000000000E+00   0.0000000000E+00   1.5769125154E+02   2.0122507501E+02   1.2500000000E+02  1.681E-08  -1.
3000002    2    3    0    0    0   1.5762585723E+01   4.8620241817E+01   1.3446797496E+02   1.4420132910E+02   1.0000000000E+01  1.395E-09  -1.
3000002    2    3    0    0    0  -1.5762585723E+01  -4.8620241817E+01   2.3223276579E+01   5.7023745914E+01   1.0000000000E+01  2.333E-10  -1.
3000001    1    4    0    0    0   9.8359152925E+00   4.1361146091E+01   1.0526889172E+02   1.1353426443E+02   1.0000000000E+00     0.000  -1.
3000022   2   4   0   0   0   5.9266704304E+00   7.2590957252E+00   2.9199083242E+01   3.0667064667E+01   2.5000000000E-01   4.324227E+00   0.
3000001    1    5    0    0    0  -1.0769717343E+01  -2.0209153228E+01   1.3391805089E+01   2.6546885493E+01   1.0000000000E+00     0.000   1.
3000022   2   5   0   0   0   -4.9928683800E+00   -2.8411088588E+01   9.8314714898E+00   3.0476860421E+01   2.5000000000E-01   2.056730E+00   0.
13    1    7    0    0    0   1.7745243908E+00   2.1998959983E+00   8.6693276074E+00   9.1190320419E+00   1.0500000000E-01     0.000  -1.
-13    1    7    0    0    0   4.1521460397E+00   5.0591997269E+00   2.0529755635E+01   2.1548032626E+01   1.0500000000E-01     0.000   1.
13    1    9    0    0    0  -2.7937501487E+00  -1.5998961785E+01   5.6024092847E+00   1.7180507353E+01   1.0500000000E-01     0.000  -1.
-13    1    9    0    0    0  -2.1991182313E+00  -1.2412126803E+01   4.2290622051E+00   1.3296353068E+01   1.0500000000E-01     0.000   1.
</event>
<event>
 13   1  9.2978750E-05  1.2500000E+02  7.5467720E-03  1.2380620E-01
   21   -1    0    0  502  501   0.0000000000E+00   0.0000000000E+00   4.1757967940E+00   4.1757967940E+00   0.0000000000E+00     0.000  -1.
   21   -1    0    0  501  502   0.0000000000E+00   0.0000000000E+00  -9.3545021291E+02   9.3545021291E+02   0.0000000000E+00     0.000  -1.
   25    2    1    2    0    0   0.0000000000E+00   0.0000000000E+00  -9.3127441611E+02   9.3962600970E+02   1.2500000000E+02  5.767E-08  -1.
3000002    2    3    0    0    0  -2.1001424586E+01   1.5847270048E+01  -8.8511415684E+02   8.8556155429E+02   1.0000000000E+01  7.965E-10  -1.
3000002    2    3    0    0    0   2.1001424586E+01  -1.5847270048E+01  -4.6160259270E+01   5.4064455407E+01   1.0000000000E+01  7.540E-11  -1.
3000001    1    4    0    0    0  -1.4750162859E+01   1.1500987470E+01  -4.6308775162E+02   4.6346640193E+02   1.0000000000E+00     0.000  -1.
3000022   2   4   0   0   0   -6.2512617273E+00   4.3462825785E+00   -4.2202640522E+02   4.2209515236E+02   2.5000000000E-01   1.304156E+00   0.
3000001    1    5    0    0    0   4.9555630586E+00  -1.6643293869E+00  -1.7464803856E+01   1.8257792069E+01   1.0000000000E+00     0.000   1.
3000022   2   5   0   0   0   1.6045861527E+01   -1.4182940661E+01   -2.8695455414E+01   3.5806663338E+01   2.5000000000E-01   5.467434E+00   0.
13    1    7    0    0    0  -3.5767183619E+00   2.4430838149E+00  -2.3700920127E+02   2.3704880107E+02   1.0500000000E-01     0.000  -1.
-13    1    7    0    0    0  -2.6745433654E+00   1.9031987636E+00  -1.8501720395E+02   1.8504635130E+02   1.0500000000E-01     0.000   1.
13    1    9    0    0    0   1.2350603565E+01  -1.0918042793E+01  -2.2075173603E+01   2.7551141200E+01   1.0500000000E-01     0.000  -1.
-13    1    9    0    0    0   3.6952579623E+00  -3.2648978680E+00  -6.6202818118E+00   8.2555221376E+00   1.0500000000E-01     0.000   1.
</event>
<event>
 13   1  9.2978750E-05  1.2500000E+02  7.5467720E-03  1.2380620E-01
   21   -1    0    0  502  501   0.0000000000E+00   0.0000000000E+00   1.4265744351E+01   1.4265744351E+01   0.0000000000E+00     0.000  -1.
   21   -1    0    0  501  502   0.0000000000E+00   0.0000000000E+00  -2.7382027210E+02   2.7382027210E+02   0.0000000000E+00     0.000  -1.
   25    2    1    2    0    0   0.0000000000E+00   0.0000000000E+00  -2.5955452775E+02   2.8808601645E+02   1.2500000000E+02  6.352E-08  -1.
3000002    2    3    0    0    0   1.0944797713E+01  -4.1128769114E+01  -2.3271418633E+02   2.3678525453E+02   1.0000000000E+01  2.568E-10   1.
3000002    2    3    0    0    0  -1.0944797713E+01   4.1128769114E+01  -2.6840341425E+01   5.1300761920E+01   1.0000000000E+01  3.262E-10   1.
3000001    1    4    0    0    0   6.4879430226E+00  -1.9254817962E+01  -8.5429320973E+01   8.7818052252E+01   1.0000000000E+00     0.000   1.
3000022   2   4   0   0   0   4.4568546902E+00   -2.1873951152E+01   -1.4728486535E+02   1.4896720228E+02   2.5000000000E-01   3.183592E+00   0.
3000001    1    5    0    0    0  -7.1617626587E-01   1.0115567747E+01  -2.2889757531E+00   1.0443994891E+01   1.0000000000E+00     0.000   1.
3000022   2   5   0   0   0   -1.0228621447E+01   3.1013201367E+01   -2.4551365672E+01   4.0856767029E+01   2.5000000000E-01   3.845718E-01   0.
13    1    7    0    0    0   1.5135271575E+00  -7.5963034002E+00  -5.0807005147E+01   5.1394137670E+01   1.0500000000E-01     0.000  -1.
-13    1    7    0    0    0   2.9433275327E+00  -1.4277647752E+01  -9.6477860205E+01   9.7573064608E+01   1.0500000000E-01     0.000   1.
13    1    9    0    0    0  -5.5165866661E+00   1.6516646707E+01  -1.3110014053E+01   2.1797152115E+01   1.0500000000E-01     0.000   1.
-13    1    9    0    0    0  -4.7120347808E+00   1.4496554660E+01  -1.1441351619E+01   1.9059614914E+01   1.0500000000E-01     0.000  -1.
</event>
<event>
 13   1  9.2978750E-05  1.2500000E+02  7.5467720E-03  1.2380620E-01
   21   -1    0    0  502  501   0.0000000000E+00   0.0000000000E+00   1.3886692753E+01   1.3886692753E+01   0.0000000000E+00     0.000   1.
   21   -1    0    0  501  502   0.0000000000E+00   0.0000000000E+00  -2.8129447879E+02   2.8129447879E+02   0.0000000000E+00     0.000   1.
   25    2    1    2    0    0   0.0000000000E+00   0.0000000000E+00  -2.6740778604E+02   2.9518117154E+02   1.2500000000E+02  5.340E-08  -1.
3000002    2    3    0    0    0   2.9345392984E+01  -4.2299857719E+01  -2.1398691870E+02   2.2031983893E+02   1.0000000000E+01  2.516E-10  -1.
3000002    2    3    0    0    0  -2.9345392984E+01   4.2299857719E+01  -5.3420867340E+01   7.4861332607E+01   1.0000000000E+01  8.500E-10  -1.
3000001    1    4    0    0    0   1.0155729885E+01  -2.0299277076E+01  -1.0941702775E+02   1.1175099759E+02   1.0000000000E+00     0.000   1.
3000022   2   4   0   0   0   1.9189663099E+01   -2.2000580643E+01   -1.0456989095E+02   1.0856884135E+02   2.5000000000E-01   1.890109E+00   0.
3000001    1    5    0    0    0  -1.7096021460E+01   2.9934754241E+01  -4.0431695791E+01   5.3142125341E+01   1.0000000000E+00     0.000  -1.
3000022   2   5   0   0   0   -1.2249371524E+01   1.2365103478E+01   -1.2989171549E+01   2.1719207267E+01   2.5000000000E-01   2.349514E+00   0.
13    1    7    0    0    0   4.9160002657E+00  -5.6278394774E+00  -2.6659904623E+01   2.7687563549E+01   1.0500000000E-01     0.000   1.
-13    1    7    0    0    0   1.4273662833E+01  -1.6372741166E+01  -7.7909986326E+01   8.0881277798E+01   1.0500000000E-01     0.000  -1.
13    1    9    0    0    0  -6.2012928331E+00   6.2693317076E+00  -6.4966198272E+00   1.0953430834E+01   1.0500000000E-01     0.000   1.
-13    1    9    0    0    0  -6.0480786913E+00   6.0957717706E+00  -6.4925517218E+00   1.0765776433E+01   1.0500000000E-01     0.000  -1.
</event>
<event>
 13   1  9.2978750E-05  1.2500000E+02  7.5467720E-03  1.2380620E-01
   21   -1    0    0  502  501   0.0000000000E+00   0.0000000000E+00   5.7729845021E+00   5.7729845021E+00   0.0000000000E+00     0.000   1.
   21   -1    0    0  501  502   0.0000000000E+00   0.0000000000E+00  -6.7664307752E+02   6.7664307752E+02   0.0000000000E+00     0.000   1.
   25    2    1    2    0    0   0.0000000000E+00   0.0000000000E+00  -6.7087009302E+02   6.8241606202E+02   1.2500000000E+02  3.550E-08  -1.
3000002    2    3    0    0    0   1.9554842319E+01   5.8406822341E+01  -3.1613244475E+02   3.2223201482E+02   1.0000000000E+01  1.495E-09  -1.
3000002    2    3    0    0    0  -1.9554842319E+01  -5.8406822341E+01  -3.5473764827E+02   3.6018404720E+02   1.0000000000E+01  5.152E-11  -1.
3000001    1    4    0    0    0   1.5941032156E+01   4.2549529493E+01  -2.5222842399E+02   2.5629037601E+02   1.0000000000E+00     0.000  -1.
3000022   2   4   0   0   0   3.6138101638E+00   1.5857292849E+01   -6.3904020758E+01   6.5941638814E+01   2.5000000000E-01   2.151508E+00   0.
3000001    1    5    0    0    0  -8.9368870399E+00  -2.4727521796E+01  -1.2412163393E+02   1.2687985772E+02   1.0000000000E+00     0.000  -1.
3000022   2   5   0   0   0   -1.0617955279E+01   -3.3679300546E+01   -2.3061601434E+02   2.3330418948E+02   2.5000000000E-01   1.437505E+00   0.
13    1    7    0    0    0   1.8012189873E+00   8.2081002498E+00  -3.3028621469E+01   3.4081052811E+01   1.0500000000E-01     0.000  -1.
-13    1    7    0    0    0   1.8125911765E+00   7.6491925988E+00  -3.0875399289E+01   3.1860586003E+01   1.0500000000E-01     0.000   1.
13    1    9    0    0    0  -6.4492527415E+00  -2.0631116366E+01  -1.4137526841E+02   1.4301822739E+02   1.0500000000E-01     0.000  -1.
-13    1    9    0    0    0  -4.1687025379E+00  -1.3048184179E+01  -8.9240745936E+01   9.0285962095E+01   1.0500000000E-01     0.000   1.
</event>
<event>
 13   1  9.2978750E-05  1.2500000E+02  7.5467720E-03  1.2380620E-01
   21   -1    0    0  502  501   0.0000000000E+00   0.0000000000E+00   1.2338020158E+02   1.2338020158E+02   0.0000000000E+00     0.000   1.
   21   -1    0    0  501  502   0.0000000000E+00   0.0000000000E+00  -3.1660265989E+01   3.1660265989E+01   0.0000000000E+00     0.000   1.
   25    2    1    2    0    0   0.0000000000E+00   0.0000000000E+00   9.1719935595E+01   1.5504046757E+02   1.2500000000E+02  5.153E-08  -1.
3000002    2    3    0    0    0  -6.5947461966E+00  -6.0540513788E+01   3.3606127114E+01   7.0271020106E+01   1.0000000000E+01  1.946E-11  -1.
3000002    2    3    0    0    0   6.5947461966E+00   6.0540513788E+01   5.8113808481E+01   8.4769447464E+01   1.0000000000E+01  1.697E-09  -1.
3000001    1    4    0    0    0  -8.9893317030E+00  -5.2543841063E+01   2.9969090143E+01   6.1162158906E+01   1.0000000000E+00     0.000   1.
3000022   2   4   0   0   0   2.3945855064E+00   -7.9966727258E+00   3.6370369712E+00   9.1088612000E+00   2.5000000000E-01   4.180796E-01   0.
3000001    1    5    0    0    0   5.9000430441E+00   6.0538999112E+01   5.7940188139E+01   8.4010989299E+01   1.0000000000E+00     0.000  -1.
3000022   2   5   0   0   0   6.9470315244E-01   1.5146758501E-03   1.7362034215E-01   7.5845816461E-01   2.5000000000E-01   6.029432E+00   0.
13    1    7    0    0    0   6.4995545089E-01  -2.3034584798E+00   1.0623977500E+00   2.6207016304E+00   1.0500000000E-01     0.000   1.
-13    1    7    0    0    0   1.7446300555E+00  -5.6932142459E+00   2.5746392212E+00   6.4881595695E+00   1.0500000000E-01     0.000  -1.
13    1    9    0    0    0   2.9323061136E-01  -6.4573050314E-02   7.1593712061E-02   3.2604375454E-01   1.0500000000E-01     0.000  -1.
-13    1    9    0    0    0   4.0147254108E-01   6.6087726165E-02   1.0202663009E-01   4.3241441007E-01   1.0500000000E-01     0.000   1.
</event>
<event>
 13   1  9.2978750E-05  1.2500000E+02  7.5467720E-03  1.2380620E-01
   21   -1    0    0  502  501   0.0000000000E+00   0.0000000000E+00   7.5956123149E+01   7.5956123149E+01   0.0000000000E+00     0.000   1.
   21   -1    0    0  501  502   0.0000000000E+00   0.0000000000E+00  -5.1427716925E+01   5.1427716925E+01   0.0000000000E+00     0.000   1.
   25    2    1    2    0    0   0.0000000000E+00   0.0000000000E+00   2.4528406225E+01   1.2738384007E+02   1.2500000000E+02  3.985E-08  -1.
3000002    2    3    0    0    0  -2.7514016770E+01  -2.2836844962E+01   6.3499319038E+01   7.3557502166E+01   1.0000000000E+01  4.150E-10   1.
3000002    2    3    0    0    0   2.7514016770E+01   2.2836844962E+01  -3.8970912813E+01   5.3826337904E+01   1.0000000000E+01  8.303E-11   1.
3000001    1    4    0    0    0  -2.5572238249E+01  -2.3082449079E+01   6.2435831648E+01   7.1316000296E+01   1.0000000000E+00     0.000   1.
3000022   2   4   0   0   0   -1.9417785213E+00   2.4560411720E-01   1.0634873899E+00   2.2415018708E+00   2.5000000000E-01   1.845019E+01   0.
3000001    1    5    0    0    0   9.6592988127E+00   3.7718925500E+00  -1.5703900146E+01   1.8845203813E+01   1.0000000000E+00     0.000  -1.
3000022   2   5   0   0   0   1.7854717957E+01   1.9064952412E+01   -2.3267012667E+01   3.4981134090E+01   2.5000000000E-01   1.571458E+00   0.
13    1    7    0    0    0  -1.0256166830E+00   1.8001830161E-01   5.1317971958E-01   1.1656219773E+00   1.0500000000E-01     0.000   1.
-13    1    7    0    0    0  -9.1616183832E-01   6.5585815585E-02   5.5030767030E-01   1.0758798935E+00   1.0500000000E-01     0.000  -1.
13    1    9    0    0    0   1.1874738807E+01   1.2600774238E+01  -1.5414643012E+01   2.3182130561E+01   1.0500000000E-01     0.000  -1.
-13    1    9    0    0    0   5.9799791500E+00   6.4641781739E+00  -7.8523696545E+00   1.1799003530E+01   1.0500000000E-01     0.000   1.
</event>
<event>
 13   1  9.2978750E-05  1.2500000E+02  7.5467720E-03  1.2380620E-01
   21   -1    0    0  502  501   0.0000000000E+00   0.0000000000E+00   2.5409638437E+02   2.5409638437E+02   0.0000000000E+00     0.000  -1.
   21   -1    0    0  501  502   0.0000000000E+00   0.0000000000E+00  -1.5373103438E+01   1.5373103438E+01   0.0000000000E+00     0.000  -1.
   25    2    1    2    0    0   0.0000000000E+00   0.0000000000E+00   2.3872328093E+02   2.6946948780E+02   1.2500000000E+02  1.468E-08  -1.
3000002    2    3    0    0    0   3.2692088076E+01   3.1607645566E+01   2.0924487702E+02   2.1436239045E+02   1.0000000000E+01  1.056E-11  -1.
3000002    2    3    0    0    0  -3.2692088076E+01  -3.1607645566E+01   2.9478403907E+01   5.5107097346E+01   1.0000000000E+01  9.519E-10  -1.
3000001    1    4    0    0    0   2.3922511666E+01   2.1061100463E+01   1.6447993032E+02   1.6754254383E+02   1.0000000000E+00     0.000  -1.
3000022   2   4   0   0   0   8.7695764102E+00   1.0546545103E+01   4.4764946706E+01   4.6819846621E+01   2.5000000000E-01   6.022160E+00   0.
3000001    1    5    0    0    0  -1.7821178222E+01  -1.7558698455E+01   2.1980202005E+01   3.3317136204E+01   1.0000000000E+00     0.000   1.
3000022   2   5   0   0   0   -1.4870909854E+01   -1.4048947111E+01   7.4982019024E+00   2.1789961142E+01   2.5000000000E-01   4.061088E+00   0.
13    1    7    0    0    0   6.0253130796E+00   7.1906284763E+00   3.0733765588E+01   3.2133859212E+01   1.0500000000E-01     0.000   1.
-13    1    7    0    0    0   2.7442633306E+00   3.3559166267E+00   1.4031181118E+01   1.4685987410E+01   1.0500000000E-01     0.000  -1.
13    1    9    0    0    0  -4.2347030360E+00  -3.9652733619E+00   2.0926765146E+00   6.1681782264E+00   1.0500000000E-01     0.000  -1.
-13    1    9    0    0    0  -1.0636206818E+01  -1.0083673749E+01   5.4055253878E+00   1.5621782915E+01   1.0500000000E-01     0.000   1.
</event>
<event>
 13   1  9.2978750E-05  1.2500000E+02  7.5467720E-03  1.2380620E-01
   21   -1    0    0  502  501   0.0000000000E+00   0.0000000000E+00   1.3734819598E+01   1.3734819598E+01   0.0000000000E+00     0.000   1.
   21   -1    0    0  501  502   0.0000000000E+00   0.0000000000E+00  -2.8440490042E+02   2.8440490042E+02   0.0000000000E+00     0.000   1.
   25    2    1    2    0    0   0.0000000000E+00   0.0000000000E+00  -2.7067008082E+02   2.9813972001E+02   1.2500000000E+02  9.086E-08  -1.
3000002    2    3    0    0    0  -2.3965487790E+01   5.6783704342E+01  -1.2879602560E+02   1.4313332909E+02   1.0000000000E+01  4.414E-10  -1.
3000002    2    3    0    0    0   2.3965487790E+01  -5.6783704342E+01  -1.4187405522E+02   1.5500639092E+02   1.0000000000E+01  2.413E-10  -1.
3000001    1    4    0    0    0  -3.5947614882E+00   9.5457953290E+00  -1.4125351285E+01   1.7451935926E+01   1.0000000000E+00     0.000  -1.
3000022   2   4   0   0   0   -2.0370726302E+01   4.7237909013E+01   -1.1467067432E+02   1.2568139316E+02   2.5000000000E-01   9.819577E+00   0.
3000001    1    5    0    0    0   1.1789057486E+01  -1.8532464810E+01  -4.3039351002E+01   4.8330320328E+01   1.0000000000E+00     0.000  -1.
3000022   2   5   0   0   0   1.2176430304E+01   -3.8251239533E+01   -9.8834704214E+01   1.0667607060E+02   2.5000000000E-01   9.792040E-01   0.
13    1    7    0    0    0  -1.1379741700E+01   2.6246279939E+01  -6.3852800405E+01   6.9968256204E+01   1.0500000000E-01     0.000  -1.
-13    1    7    0    0    0  -8.9909846024E+00   2.0991629075E+01  -5.0817873915E+01   5.5713136957E+01   1.0500000000E-01     0.000   1.
13    1    9    0    0    0   3.2186572005E+00  -1.0004365207E+01  -2.5869991438E+01   2.7923369413E+01   1.0500000000E-01     0.000   1.
-13    1    9    0    0    0   8.9577731033E+00  -2.8246874326E+01  -7.2964712776E+01   7.8752701183E+01   1.0500000000E-01     0.000  -1.
</event>
<event>
 13   1  9.2978750E-05  1.2500000E+02  7.5467720E-03  1.2380620E-01
   21   -1    0    0  502  501   0.0000000000E+00   0.0000000000E+00   2.2302436967E+02   2.2302436967E+02   0.0000000000E+00     0.000  -1.
   21   -1    0    0  501  502   0.0000000000E+00   0.0000000000E+00  -1.7514902097E+01   1.7514902097E+01   0.0000000000E+00     0.000  -1.
   25    2    1    2    0    0   0.0000000000E+00   0.0000000000E+00   2.0550946757E+02   2.4053927177E+02   1.2500000000E+02  5.061E-09  -1.
3000002    2    3    0    0    0   1.7621031482E+01  -5.5717069197E+01   1.4082297230E+02   1.5279398574E+02   1.0000000000E+01  1.049E-09   1.
3000002    2    3    0    0    0  -1.7621031482E+01   5.5717069197E+01   6.4686495265E+01   8.7745286028E+01   1.0000000000E+01  8.740E-10   1.
3000001    1    4    0    0    0   1.2507108743E+01  -3.9565306142E+01   1.1080526437E+02   1.1832433322E+02   1.0000000000E+00     0.000   1.
3000022   2   4   0   0   0   5.1139227396E+00   -1.6151763054E+01   3.0017707934E+01   3.4469652524E+01   2.5000000000E-01   8.903262E+00   0.
3000001    1    5    0    0    0  -7.1102031530E+00   3.1505823994E+01   4.1617713323E+01   5.2689714335E+01   1.0000000000E+00     0.000  -1.
3000022   2   5   0   0   0   -1.0510828329E+01   2.4211245203E+01   2.3068781942E+01   3.5055571693E+01   2.5000000000E-01   5.142411E-02   0.
13    1    7    0    0    0   1.6455268927E+00  -5.2928414976E+00   9.7328945435E+00   1.1200990629E+01   1.0500000000E-01     0.000  -1.
-13    1    7    0    0    0   3.4683958469E+00  -1.0858921556E+01   2.0284813390E+01   2.3268661895E+01   1.0500000000E-01     0.000   1.
13    1    9    0    0    0  -3.7277711478E+00   8.6099498312E+00   8.2757011255E+00   1.2511025855E+01   1.0500000000E-01     0.000   1.
-13    1    9    0    0    0  -6.7830571813E+00   1.5601295371E+01   1.4793080817E+01   2.2544545838E+01   1.0500000000E-01     0.000  -1.
</event>
<event>
 13   1  9.2978750E-05  1.2500000E+02  7.5467720E-03  1.2380620E-01
   21   -1    0    0  502  501   0.0000000000E+00   0.0000000000E+00   6.9978909981E+01   6.9978909981E+01   0.0000000000E+00     0.000  -1.
   21   -1    0    0  501  502   0.0000000000E+00   0.0000000000E+00  -5.5820389330E+01   5.5820389330E+01   0.0000000000E+00     0.000  -1.
   25    2    1    2    0    0   0.0000000000E+00   0.0000000000E+00   1.4158520651E+01   1.2579929931E+02   1.2500000000E+02  5.256E-08  -1.
3000002    2    3    0    0    0   2.4207645500E+01  -2.3657318868E+01  -4.4831291903E+01   5.7057195605E+01   1.0000000000E+01  3.063E-10   1.
3000002    2    3    0    0    0  -2.4207645500E+01   2.3657318868E+01   5.8989812554E+01   6.8742103705E+01   1.0000000000E+01  1.398E-09   1.
3000001    1    4    0    0    0   1.6248783504E+01  -9.1552784843E+00  -2.5592101896E+01   3.1682767697E+01   1.0000000000E+00     0.000  -1.
3000022   2   4   0   0   0   7.9588619956E+00   -1.4502040383E+01   -1.9239190007E+01   2.5374427908E+01   2.5000000000E-01   2.263016E+00   0.
3000001    1    5    0    0    0  -2.7612905464E+00   8.2619799918E+00   1.2312405243E+01   1.5115566868E+01   1.0000000000E+00     0.000  -1.
3000022   2   5   0   0   0   -2.1446354953E+01   1.5395338876E+01   4.6677407311E+01   5.3626536837E+01   2.5000000000E-01   4.545466E+00   0.
13    1    7    0    0    0   2.2666967599E+00  -4.0515859780E+00  -5.3806127975E+00   7.1074103733E+00   1.0500000000E-01     0.000  -1.
-13    1    7    0    0    0   5.6921652357E+00  -1.0450454405E+01  -1.3858577210E+01   1.8267017535E+01   1.0500000000E-01     0.000   1.
13    1    9    0    0    0  -4.9466334799E+00   3.5438865468E+00   1.0770771560E+01   1.2371291753E+01   1.0500000000E-01     0.000   1.
-13    1    9    0    0    0  -1.6499721474E+01   1.1851452329E+01   3.5906635750E+01   4.1255245083E+01   1.0500000000E-01     0.000  -1.
</event>
<event>
 13   1  9.2978750E-05  1.2500000E+02  7.5467720E-03  1.2380620E-01
   21   -1    0    0  502  501   0.0000000000E+00   0.0000000000E+00   2.4845356847E+01   2.4845356847E+01   0.0000000000E+00     0.000   1.
   21   -1    0    0  501  502   0.0000000000E+00   0.0000000000E+00  -1.5722253554E+02   1.5722253554E+02   0.0000000000E+00     0.000   1.
   25    2    1    2    0    0   0.0000000000E+00   0.0000000000E+00  -1.3237717869E+02   1.8206789239E+02   1.2500000000E+02  1.068E-08  -1.
3000002    2    3    0    0    0   5.6500267773E+01  -6.1270775591E+00  -3.1218548812E+01   6.5608072123E+01   1.0000000000E+01  1.278E-09  -1.
3000002    2    3    0    0    0  -5.6500267773E+01   6.1270775591E+00  -1.0115862988E+02   1.1645982027E+02   1.0000000000E+01  5.545E-10  -1.
3000001    1    4    0    0    0   4.3740948335E+01  -8.5033089024E+00  -2.6126106364E+01   5.1663819615E+01   1.0000000000E+00     0.000  -1.
3000022   2   4   0   0   0   1.2759319438E+01   2.3762313433E+00   -5.0924424481E+00   1.3944252508E+01   2.5000000000E-01   1.147655E-01   0.
3000001    1    5    0    0    0  -1.7226192439E+01   5.8969653529E+00  -2.7756045613E+01   3.3210148666E+01   1.0000000000E+00     0.000  -1.
3000022   2   5   0   0   0   -3.9274075334E+01   2.3011220619E-01   -7.3402584265E+01   8.3249671601E+01   2.5000000000E-01   5.781876E+00   0.
13    1    7    0    0    0   3.6423443102E+00   7.1719041293E-01  -1.4389434473E+00   3.9827901535E+00   1.0500000000E-01     0.000  -1.
-13    1    7    0    0    0   9.1169751275E+00   1.6590409304E+00  -3.6534990008E+00   9.9614623542E+00   1.0500000000E-01     0.000   1.
13    1    9    0    0    0  -2.3077211715E+01   1.8128482096E-01  -4.3036422280E+01   4.8833750955E+01   1.0500000000E-01     0.000  -1.
-13    1    9    0    0    0  -1.6196863619E+01   4.8827385230E-02  -3.0366161985E+01   3.4415920646E+01   1.0500000000E-01     0.000   1.
</event>
<event>
 13   1  9.2978750E-05  1.2500000E+02  7.5467720E-03  1.2380620E-01
   21   -1    0    0  502  501   0.0000000000E+00   0.0000000000E+00   4.3648400332E+01   4.3648400332E+01   0.0000000000E+00     0.000  -1.
   21   -1    0    0  501  502   0.0000000000E+00   0.0000000000E+00  -8.9493543184E+01   8.9493543184E+01   0.0000000000E+00     0.000  -1.
   25    2    1    2    0    0   0.0000000000E+00   0.0000000000E+00  -4.5845142852E+01   1.3314194352E+02   1.2500000000E+02  3.195E-08  -1.
3000002    2    3    0    0    0   2.4673749066E+01  -4.4338236511E+01   1.4457114219E+01   5.3699918635E+01   1.0000000000E+01  3.296E-10   1.
3000002    2    3    0    0    0  -2.4673749066E+01   4.4338236511E+01  -6.0302257071E+01   7.9442024885E+01   1.0000000000E+01  4.301E-10   1.
3000001    1    4    0    0    0   2.3002929605E+01  -4.4400989158E+01   1.3785849037E+01   5.1880942959E+01   1.0000000000E+00     0.000   1.
3000022   2   4   0   0   0   1.6708194615E+00   6.2752646870E-02   6.7126518226E-01   1.8189756768E+00   2.5000000000E-01   4.495540E+00   0.
3000001    1    5    0    0    0  -1.1252991501E+01   2.7712188071E+01  -3.0103137248E+01   4.2447544777E+01   1.0000000000E+00     0.000   1.
3000022   2   5   0   0   0   -1.3420757566E+01   1.6626048440E+01   -3.0199119823E+01   3.6994480108E+01   2.5000000000E-01   7.960956E-01   0.
13    1    7    0    0    0   8.7578943422E-01   7.1375798070E-02   4.1180800767E-01   9.7606991185E-01   1.0500000000E-01     0.000  -1.
-13    1    7    0    0    0   7.9503002732E-01  -8.6231512000E-03   2.5945717458E-01   8.4290576491E-01   1.0500000000E-01     0.000   1.
13    1    9    0    0    0  -3.5953598368E+00   4.5057421026E+00  -8.1215704851E+00   9.9598823485E+00   1.0500000000E-01     0.000   1.
-13    1    9    0    0    0  -9.8253977288E+00   1.2120306337E+01  -2.2077549338E+01   2.7034597759E+01   1.0500000000E-01     0.000  -1.
</event>
<event>
 13   1  9.2978750E-05  1.2500000E+02  7.5467720E-03  1.2380620E-01
   21   -1    0    0  502  501   0.0000000000E+00   0.0000000000E+00   8.4577449427E+01   8.4577449427E+01   0.0000000000E+00     0.000  -1.
   21   -1    0    0  501  502   0.0000000000E+00   0.0000000000E+00  -4.6185478830E+01   4.6185478830E+01   0.0000000000E+00     0.000  -1.
   25    2    1    2    0    0   0.0000000000E+00   0.0000000000E+00   3.8391970597E+01   1.3076292826E+02   1.2500000000E+02  1.544E-08  -1.
3000002    2    3    0    0    0   4.2297069737E+01   1.8855273807E+01  -2.3447154648E+01   5.2861446440E+01   1.0000000000E+01  3.348E-10  -1.
3000002    2    3    0    0    0  -4.2297069737E+01  -1.8855273807E+01   6.1839125245E+01   7.7901481820E+01   1.0000000000E+01  2.024E-10  -1.
3000001    1    4    0    0    0   1.4850548589E+01   1.0925815107E+01  -1.2342093463E+01   2.2208995929E+01   1.0000000000E+00     0.000   1.
3000022   2   4   0   0   0   2.7446521148E+01   7.9294586999E+00   -1.1105061185E+01   3.0652450511E+01   2.5000000000E-01   2.145733E+00   0.
3000001    1    5    0    0    0  -3.4979698374E+01  -1.9439892981E+01   5.2413284743E+01   6.5951809338E+01   1.0000000000E+00     0.000  -1.
3000022   2   5   0   0   0   -7.3173713636E+00   5.8461917462E-01   9.4258405023E+00   1.1949672482E+01   2.5000000000E-01   3.220777E+00   0.
13    1    7    0    0    0   6.7293834812E+00   1.9377430327E+00  -2.7463220417E+00   7.5228159525E+00   1.0500000000E-01     0.000   1.
-13    1    7    0    0    0   2.0717137667E+01   5.9917156672E+00  -8.3587391436E+00   2.3129634559E+01   1.0500000000E-01     0.000  -1.
13    1    9    0    0    0  -2.2892573845E+00   2.2276336233E-01   2.9077317314E+00   3.7089421281E+00   1.0500000000E-01     0.000  -1.
-13    1    9    0    0    0  -5.0281139791E+00   3.6185581229E-01   6.5181087709E+00   8.2407303538E+00   1.0500000000E-01     0.000   1.
</event>
<event>
 13   1  9.2978750E-05  1.2500000E+02  7.5467720E-03  1.2380620E-01
   21   -1    0    0  502  501   0.0000000000E+00   0.0000000000E+00   3.8268321436E+02   3.8268321436E+02   0.0000000000E+00     0.000  -1.
   21   -1    0    0  501  502   0.0000000000E+00   0.0000000000E+00  -1.0207528978E+01   1.0207528978E+01   0.0000000000E+00     0.000  -1.
   25    2    1    2    0    0   0.0000000000E+00   0.0000000000E+00   3.7247568538E+02   3.9289074334E+02   1.2500000000E+02  3.969E-09  -1.
3000002    2    3    0    0    0   1.9057621589E+01   1.8568732704E+01   1.1285138538E+01   3.0583412607E+01   1.0000000000E+01  1.169E-09  -1.
3000002    2    3    0    0    0  -1.9057621589E+01  -1.8568732704E+01   3.6119054684E+02   3.6230733073E+02   1.0000000000E+01  8.266E-10  -1.
3000001    1    4    0    0    0   5.0611783775E-01   1.3001598438E+00  -1.4232049125E+00   2.2298168329E+00   1.0000000000E+00     0.000   1.
3000022   2   4   0   0   0   1.8551503751E+01   1.7268572861E+01   1.2708343450E+01   2.8353595774E+01   2.5000000000E-01   1.184012E+01   0.
3000001    1    5    0    0    0  -1.7403237934E+00  -1.7782515036E+00   1.2549949742E+01   1.2833243699E+01   1.0000000000E+00     0.000   1.
3000022   2   5   0   0   0   -1.7317297795E+01   -1.6790481201E+01   3.4864059710E+02   3.4947408703E+02   2.5000000000E-01   2.085474E+00   0.
13    1    7    0    0    0   8.6571543220E+00   8.0375513804E+00   5.9966115465E+00   1.3248355679E+01   1.0500000000E-01     0.000   1.
-13    1    7    0    0    0   9.8943494290E+00   9.2310214801E+00   6.7117319039E+00   1.5105240095E+01   1.0500000000E-01     0.000  -1.
13    1    9    0    0    0  -1.2783234306E+01  -1.2362445032E+01   2.5737072338E+02   2.5798438209E+02   1.0500000000E-01     0.000  -1.
-13    1    9    0    0    0  -4.5340634890E+00  -4.4280361690E+00   9.1269873722E+01   9.1489704941E+01   1.0500000000E-01     0.000   1.
</event>
<event>
 13   1  9.2978750E-05  1.2500000E+02  7.5467720E-03  1.2380620E-01
   21   -1    0    0  502  501   0.0000000000E+00   0.0000000000E+00   3.1027038284E+01   3.1027038284E+01   0.0000000000E+00     0.000  -1.
   21   -1    0    0  501  502   0.0000000000E+00   0.0000000000E+00  -1.2589825572E+02   1.2589825572E+02   0.0000000000E+00     0.000  -1.
   25    2    1    2    0    0   0.0000000000E+00   0.0000000000E+00  -9.4871217433E+01   1.5692529400E+02   1.2500000000E+02  3.437E-08  -1.
3000002    2    3    0    0    0   4.8931985841E+00  -5.0204680803E+01  -2.8414864679E+00   5.1502693252E+01   1.0000000000E+01  7.981E-10  -1.
3000002    2    3    0    0    0  -4.8931985841E+00   5.0204680803E+01  -9.2029730965E+01   1.0542260075E+02   1.0000000000E+01  8.328E-10  -1.
3000001    1    4    0    0    0   1.7864261031E+00  -4.6616784350E+01  -2.2856222229E+00   4.6717662295E+01   1.0000000000E+00     0.000  -1.
3000022   2   4   0   0   0   3.1067724809E+00   -3.5878964528E+00   -5.5586424503E-01   4.7850309574E+00   2.5000000000E-01   1.767853E+01   0.
3000001    1    5    0    0    0  -1.2981495601E+00   3.7923834491E+00  -3.5635780016E+00   5.4558640634E+00   1.0000000000E+00     0.000  -1.
3000022   2   5   0   0   0   -3.5950490239E+00   4.6412297354E+01   -8.8466152963E+01   9.9966736684E+01   2.5000000000E-01   1.107441E+01   0.
13    1    7    0    0    0   1.1478829941E+00  -1.4084858137E+00  -1.8438958898E-01   1.8293420063E+00   1.0500000000E-01     0.000   1.
-13    1    7    0    0    0   1.9588894868E+00  -2.1794106391E+00  -3.7147465605E-01   2.9556889511E+00   1.0500000000E-01     0.000  -1.
13    1    9    0    0    0  -1.2746652643E+00   1.7148061749E+01  -3.2734150860E+01   3.6975890129E+01   1.0500000000E-01     0.000  -1.
-13    1    9    0    0    0  -2.3203837596E+00   2.9264235605E+01  -5.5732002104E+01   6.2990846556E+01   1.0500000000E-01     0.000   1.
</event>
<event>
 13   1  9.2978750E-05  1.2500000E+02  7.5467720E-03  1.2380620E-01
   21   -1    0    0  502  501   0.0000000000E+00   0.0000000000E+00   1.0017744053E+01   1.0017744053E+01   0.0000000000E+00     0.000   1.
   21   -1    0    0  501  502   0.0000000000E+00   0.0000000000E+00  -3.8993310063E+02   3.8993310063E+02   0.0000000000E+00     0.000   1.
   25    2    1    2    0    0   0.0000000000E+00   0.0000000000E+00  -3.7991535657E+02   3.9995084468E+02   1.2500000000E+02  3.591E-08  -1.
3000002    2    3    0    0    0  -4.4099843230E+01   4.3026187695E+01  -1.7973845278E+02   1.9026812767E+02   1.0000000000E+01  3.502E-11   1.
3000002    2    3    0    0    0   4.4099843230E+01  -4.3026187695E+01  -2.0017690379E+02   2.0968271701E+02   1.0000000000E+01  2.076E-09   1.
3000001    1    4    0    0    0  -2.7560389719E+01   2.4092106968E+01  -1.1974995479E+02   1.2522402474E+02   1.0000000000E+00     0.000  -1.
3000022   2   4   0   0   0   -1.6539453511E+01   1.8934080727E+01   -5.9988497991E+01   6.5044102935E+01   2.5000000000E-01   4.513693E-01   0.
3000001    1    5    0    0    0   3.2838625815E+00  -2.1056475405E+00  -7.3593225532E+00   8.3891080254E+00   1.0000000000E+00     0.000   1.
3000022   2   5   0   0   0   4.0815980648E+01   -4.0920540154E+01   -1.9281758124E+02   2.0129360898E+02   2.5000000000E-01   2.809507E-03   0.
13    1    7    0    0    0  -4.8563252945E+00   5.5932109481E+00  -1.7774983380E+01   1.9256919879E+01   1.0500000000E-01     0.000   1.
-13    1    7    0    0    0  -1.1683128216E+01   1.3340869778E+01  -4.2213514611E+01   4.5787183056E+01   1.0500000000E-01     0.000  -1.
13    1    9    0    0    0   1.3518225976E+01  -1.3612073457E+01  -6.3886784805E+01   6.6705046849E+01   1.0500000000E-01     0.000   1.
-13    1    9    0    0    0   2.7297754672E+01  -2.7308466697E+01  -1.2893079643E+02   1.3458856213E+02   1.0500000000E-01     0.000  -1.
</event>
<event>
 13   1  9.2978750E-05  1.2500000E+02  7.5467720E-03  1.2380620E-01
   21   -1    0    0  502  501   0.0000000000E+00   0.0000000000E+00   1.3535731856E+02   1.3535731856E+02   0.0000000000E+00     0.000  -1.
   21   -1    0    0  501  502   0.0000000000E+00   0.0000000000E+00  -2.8858801590E+01   2.8858801590E+01   0.0000000000E+00     0.000  -1.
   25    2    1    2    0    0   0.0000000000E+00   0.0000000000E+00   1.0649851697E+02   1.6421612015E+02   1.2500000000E+02  1.255E-07  -1.
3000002    2    3    0    0    0   3.3317650022E+01   3.1241111030E+01  -1.2376747868E+00   4.6771836187E+01   1.0000000000E+01  6.304E-10  -1.
3000002    2    3    0    0    0  -3.3317650022E+01  -3.1241111030E+01   1.0773619176E+02   1.1744428396E+02   1.0000000000E+01  1.439E-09  -1.
3000001    1    4    0    0    0   9.2169827352E+00   3.9768961549E+00  -2.3753630789E+00   1.0363919313E+01   1.0000000000E+00     0.000  -1.
3000022   2   4   0   0   0   2.4100667287E+01   2.7264214875E+01   1.1376882922E+00   3.6407916874E+01   2.5000000000E-01   3.389542E+00   0.
3000001    1    5    0    0    0  -1.1410825729E+01  -1.4300406390E+01   3.3052716133E+01   3.7791409215E+01   1.0000000000E+00     0.000   1.
3000022   2   5   0   0   0   -2.1906824294E+01   -1.6940704640E+01   7.4683475624E+01   7.9652874748E+01   2.5000000000E-01   3.290724E+00   0.
13    1    7    0    0    0   1.6095877480E+01   1.8237901547E+01   8.1003344871E-01   2.4338560020E+01   1.0500000000E-01     0.000  -1.
-13    1    7    0    0    0   8.0047898074E+00   9.0263133282E+00   3.2765484345E-01   1.2069356854E+01   1.0500000000E-01     0.000   1.
13    1    9    0    0    0  -5.6204925972E+00  -4.3372139492E+00   1.9064185097E+01   2.0343439736E+01   1.0500000000E-01     0.000   1.
-13    1    9    0    0    0  -1.6286331697E+01  -1.2603490691E+01   5.5619290527E+01   5.9309435012E+01   1.0500000000E-01     0.000  -1.
</event>
<event>
 13   1  9.2978750E-05  1.2500000E+02  7.5467720E-03  1.2380620E-01
   21   -1    0    0  502  501   0.0000000000E+00   0.0000000000E+00   1.3706425819E+02   1.3706425819E+02   0.0000000000E+00     0.000   1.
   21   -1    0    0  501  502   0.0000000000E+00   0.0000000000E+00  -2.8499406421E+01   2.8499406421E+01   0.0000000000E+00     0.000   1.
   25    2    1    2    0    0   0.0000000000E+00   0.0000000000E+00   1.0856485177E+02   1.6556366461E+02   1.2500000000E+02  7.894E-08  -1.
3000002    2    3    0    0    0  -1.0400990380E+01   6.0713075806E+01   4.9695754124E+01   7.9774219850E+01   1.0000000000E+01  6.895E-10   1.
3000002    2    3    0    0    0   1.0400990380E+01  -6.0713075806E+01   5.8869097646E+01   8.5789444760E+01   1.0000000000E+01  2.294E-09   1.
3000001    1    4    0    0    0  -9.4705172444E+00   2.9718918366E+01   2.1837627903E+01   3.8089195295E+01   1.0000000000E+00     0.000   1.
3000022   2   4   0   0   0   -9.3047313524E-01   3.0994157439E+01   2.7858126221E+01   4.1685024555E+01   2.5000000000E-01   4.591386E+00   0.
3000001    1    5    0    0    0   1.0869721671E+01  -4.1516686839E+01   4.4279789029E+01   6.1672407540E+01   1.0000000000E+00     0.000  -1.
3000022   2   5   0   0   0   -4.6873129142E-01   -1.9196388966E+01   1.4589308616E+01   2.4117037220E+01   2.5000000000E-01   1.186398E+00   0.
13    1    7    0    0    0  -3.3675807484E-01   1.1203553342E+01   9.9918337319E+00   1.5016017442E+01   1.0500000000E-01     0.000   1.
-13    1    7    0    0    0  -5.9371506040E-01   1.9790604097E+01   1.7866292489E+01   2.6669007113E+01   1.0500000000E-01     0.000  -1.
13    1    9    0    0    0  -2.4458333757E-01  -1.1905191359E+01   8.9970155453E+00   1.4924835544E+01   1.0500000000E-01     0.000  -1.
-13    1    9    0    0    0  -2.2414795385E-01  -7.2911976078E+00   5.5922930707E+00   9.1922016759E+00   1.0500000000E-01     0.000   1.
</event>
<event>
 13   1  9.2978750E-05  1.2500000E+02  7.5467720E-03  1.2380620E-01
   21   -1    0    0  502  501   0.0000000000E+00   0.0000000000E+00   9.9602522345E+01   9.9602522345E+01   0.0000000000E+00     0.000  -1.
   21   -1    0    0  501  502   0.0000000000E+00   0.0000000000E+00  -3.9218384314E+01   3.9218384314E+01   0.0000000000E+00     0.000  -1.
   25    2    1    2    0    0   0.0000000000E+00   0.0000000000E+00   6.0384138031E+01   1.3882090666E+02   1.2500000000E+02  6.810E-08  -1.
3000002    2    3    0    0    0   2.4925366657E+01   5.4327295368E+01   4.7163087412E+01   7.6792484913E+01   1.0000000000E+01  3.436E-10  -1.
3000002    2    3    0    0    0  -2.4925366657E+01  -5.4327295368E+01   1.3221050619E+01   6.2028421747E+01   1.0000000000E+01  4.310E-10  -1.
3000001    1    4    0    0    0   1.8996806183E+00   2.0522904275E+00   4.5382482454E-01   3.0044366230E+00   1.0000000000E+00     0.000   1.
3000022   2   4   0   0   0   2.3025686038E+01   5.2275004940E+01   4.6709262587E+01   7.3788048290E+01   2.5000000000E-01   4.376785E+00   0.
3000001    1    5    0    0    0  -7.6596954061E+00  -1.3306319456E+01   7.6221024467E+00   1.7170483887E+01   1.0000000000E+00     0.000  -1.
3000022   2   5   0   0   0   -1.7265671251E+01   -4.1020975911E+01   5.5989481728E+00   4.4857937860E+01   2.5000000000E-01   1.274356E+01   0.
13    1    7    0    0    0   1.5959449638E+01   3.6134756785E+01   3.2266094164E+01   5.1005259907E+01   1.0500000000E-01     0.000  -1.
-13    1    7    0    0    0   7.0662364007E+00   1.6140248156E+01   1.4443168423E+01   2.2782788383E+01   1.0500000000E-01     0.000   1.
13    1    9    0    0    0  -5.1364632910E+00  -1.2316201563E+01   1.6649962450E+00   1.3448245744E+01   1.0500000000E-01     0.000  -1.
-13    1    9    0    0    0  -1.2129207959E+01  -2.8704774348E+01   3.9339519277E+00   3.1409692117E+01   1.0500000000E-01     0.000   1.
</event>
<event>
 13   1  9.2978750E-05  1.2500000E+02  7.5467720E-03  1.2380620E-01
   21   -1    0    0  502  501   0.0000000000E+00   0.0000000000E+00   1.6650844702E+01   1.6650844702E+01   0.0000000000E+00     0.000   1.
   21   -1    0    0  501  502   0.0000000000E+00   0.0000000000E+00  -2.3459770780E+02   2.3459770780E+02   0.0000000000E+00     0.000   1.
   25    2    1    2    0    0   0.0000000000E+00   0.0000000000E+00  -2.1794686310E+02   2.5124855250E+02   1.2500000000E+02  6.027E-08  -1.
3000002    2    3    0    0    0   2.2314965514E+01  -1.0871556729E+01   4.5526925022E+00   2.7145449722E+01   1.0000000000E+01  1.623E-10  -1.
3000002    2    3    0    0    0  -2.2314965514E+01   1.0871556729E+01  -2.2249955560E+02   2.2410310278E+02   1.0000000000E+01  2.698E-10  -1.
3000001    1    4    0    0    0   1.8800195637E+01  -4.8006010037E+00   5.1514568882E+00   2.0100513279E+01   1.0000000000E+00     0.000  -1.
3000022   2   4   0   0   0   3.5147698765E+00   -6.0709557249E+00   -5.9876438604E-01   7.0449364432E+00   2.5000000000E-01   1.775223E+00   0.
3000001    1    5    0    0    0  -1.0174739375E+01  -2.7733705932E-01  -7.8713780516E+01   7.9375446332E+01   1.0000000000E+00     0.000   1.
3000022   2   5   0   0   0   -1.2140226139E+01   1.1148893788E+01   -1.4378577509E+02   1.4472765645E+02   2.5000000000E-01   1.253784E-01   0.
13    1    7    0    0    0   2.5247604044E+00  -4.3864414641E+00  -3.9460975305E-01   5.0776003855E+00   1.0500000000E-01     0.000   1.
-13    1    7    0    0    0   9.9000947206E-01  -1.6845142608E+00  -2.0415463299E-01   1.9673360577E+00   1.0500000000E-01     0.000  -1.
13    1    9    0    0    0  -7.2082546008E+00   6.7043739915E+00  -8.5963741134E+01   8.6525622678E+01   1.0500000000E-01     0.000  -1.
-13    1    9    0    0    0  -4.9319715378E+00   4.4445197964E+00  -5.7822033952E+01   5.8202033768E+01   1.0500000000E-01     0.000   1.
</event>
<event>
 13   1  9.2978750E-05  1.2500000E+02  7.5467720E-03  1.2380620E-01
   21   -1    0    0  502  501   0.0000000000E+00   0.0000000000E+00   9.7543013240E+01   9.7543013240E+01   0.0000000000E+00     0.000   1.
   21   -1    0    0  501  502   0.0000000000E+00   0.0000000000E+00  -4.0046435621E+01   4.0046435621E+01   0.0000000000E+00     0.000   1.
   25    2    1    2    0    0   0.0000000000E+00   0.0000000000E+00   5.7496577619E+01   1.3758944886E+02   1.2500000000E+02  1.067E-08  -1.
3000002    2    3    0    0    0   1.0363614346E+00  -5.6049028232E+01   3.9161647549E-01   5.6944894190E+01   1.0000000000E+01  3.955E-09  -1.
3000002    2    3    0    0    0  -1.0363614346E+00   5.6049028232E+01   5.7104961144E+01   8.0644554670E+01   1.0000000000E+01  8.055E-10  -1.
3000001    1    4    0    0    0  -2.3901683828E+00  -1.5367198420E+01  -3.3733927206E+00   1.5945013974E+01   1.0000000000E+00     0.000  -1.
3000022   2   4   0   0   0   3.4265298174E+00   -4.0681829812E+01   3.7650091961E+00   4.0999880216E+01   2.5000000000E-01   5.226552E+00   0.
3000001    1    5    0    0    0   5.9304499567E-01   3.8801030545E+00   1.3467557013E+00   4.2685656841E+00   1.0000000000E+00     0.000  -1.
3000022   2   5   0   0   0   -1.6294064303E+00   5.2168925178E+01   5.5758205442E+01   7.6375988986E+01   2.5000000000E-01   2.869709E+01   0.
13    1    7    0    0    0   1.0052169055E+00  -1.1505075240E+01   1.0839880414E+00   1.1600141050E+01   1.0500000000E-01     0.000  -1.
-13    1    7    0    0    0   2.4213129120E+00  -2.9176754572E+01   2.6810211547E+00   2.9399739166E+01   1.0500000000E-01     0.000   1.
13    1    9    0    0    0  -8.1938404436E-01   2.4124293504E+01   2.5767074799E+01   3.5307309384E+01   1.0500000000E-01     0.000  -1.
-13    1    9    0    0    0  -8.1002238595E-01   2.8044631674E+01   2.9991130644E+01   4.1068679602E+01   1.0500000000E-01     0.000   1.
</event>
<event>
 13   1  9.2978750E-05  1.2500000E+02  7.5467720E-03  1.2380620E-01
   21   -1    0    0  502  501   0.0000000000E+00   0.0000000000E+00   1.8141473297E+02   1.8141473297E+02   0.0000000000E+00     0.000   1.
   21   -1    0    0  501  502   0.0000000000E+00   0.0000000000E+00  -2.1532154176E+01   2.1532154176E+01   0.0000000000E+00     0.000   1.
   25    2    1    2    0    0   0.0000000000E+00   0.0000000000E+00   1.5988257879E+02   2.0294688714E+02   1.2500000000E+02  2.007E-08  -1.
3000002    2    3    0    0    0   1.9033760061E+01   5.7812642836E+01   9.6311589150E+01   1.1437004808E+02   1.0000000000E+01  6.076E-10   1.
3000002    2    3    0    0    0  -1.9033760061E+01  -5.7812642836E+01   6.3570989640E+01   8.8576839058E+01   1.0000000000E+01  3.209E-11   1.
3000001    1    4    0    0    0   3.1211606135E+00   1.1204850031E+01   2.6262876590E+01   2.8740720147E+01   1.0000000000E+00     0.000  -1.
3000022   2   4   0   0   0   1.5912599447E+01   4.6607792804E+01   7.0048712560E+01   8.5629327935E+01   2.5000000000E-01   6.204103E+00   0.
3000001    1    5    0    0    0   2.1454049810E-01  -5.4367594973E+00   8.7486415869E+00   1.0350995656E+01   1.0000000000E+00     0.000  -1.
3000022   2   5   0   0   0   -1.9248300559E+01   -5.2375883338E+01   5.4822348053E+01   7.8225843402E+01   2.5000000000E-01   4.477574E+00   0.
13    1    7    0    0    0   4.9953755504E+00   1.4481010583E+01   2.1783233239E+01   2.6630315803E+01   1.0500000000E-01     0.000   1.
-13    1    7    0    0    0   1.0917223897E+01   3.2126782221E+01   4.8265479321E+01   5.8999012132E+01   1.0500000000E-01     0.000  -1.
13    1    9    0    0    0  -1.0042423230E+01  -2.7502356894E+01   2.8723776908E+01   4.1015805294E+01   1.0500000000E-01     0.000  -1.
-13    1    9    0    0    0  -9.2058773285E+00  -2.4873526444E+01   2.6098571144E+01   3.7210038107E+01   1.0500000000E-01     0.000   1.
</event>
<event>
 13   1  9.2978750E-05  1.2500000E+02  7.5467720E-03  1.2380620E-01
   21   -1    0    0  502  501   0.0000000000E+00   0.0000000000E+00   6.6077840311E+01   6.6077840311E+01   0.0000000000E+00     0.000   1.
   21   -1    0    0  501  502   0.0000000000E+00   0.0000000000E+00  -5.9115884865E+01   5.9115884865E+01   0.0000000000E+00     0.000   1.
   25    2    1    2    0    0   0.0000000000E+00   0.0000000000E+00   6.9619554459E+00   1.2519372518E+02   1.2500000000E+02  1.667E-09  -1.
3000002    2    3    0    0    0   5.9058003050E+01   7.0416391150E+00  -1.2940090087E+01   6.1683695877E+01   1.0000000000E+01  1.367E-09   1.
3000002    2    3    0    0    0  -5.9058003050E+01  -7.0416391150E+00   1.9902045533E+01   6.3510029303E+01   1.0000000000E+01  7.377E-13   1.
3000001    1    4    0    0    0   3.0541555166E+01   8.0060403718E+00  -4.3666644793E+00   3.1889669692E+01   1.0000000000E+00     0.000   1.
3000022   2   4   0   0   0   2.8516447883E+01   -9.6440125678E-01   -8.5734256076E+00   2.9794026185E+01   2.5000000000E-01   6.883393E-01   0.
3000001    1    5    0    0    0  -4.4316942284E+01  -4.0371873938E+00   1.0386623824E+01   4.5707463394E+01   1.0000000000E+00     0.000  -1.
3000022   2   5   0   0   0   -1.4741060766E+01   -3.0044517212E+00   9.5154217083E+00   1.7802565909E+01   2.5000000000E-01   4.913756E-01   0.
13    1    7    0    0    0   7.7023350746E+00  -2.8678639660E-01  -2.3418369119E+00   8.0562669495E+00   1.0500000000E-01     0.000   1.
-13    1    7    0    0    0   2.0814112809E+01  -6.7761486017E-01  -6.2315886957E+00   2.1737759236E+01   1.0500000000E-01     0.000  -1.
13    1    9    0    0    0  -9.9252429178E+00  -2.0233342669E+00   6.3446447109E+00   1.1952818498E+01   1.0500000000E-01     0.000   1.
-13    1    9    0    0    0  -4.8158178480E+00  -9.8111745428E-01   3.1707769974E+00   5.8497474108E+00   1.0500000000E-01     0.000  -1.
</event>
<event>
 13   1  9.2978750E-05  1.2500000E+02  7.5467720E-03  1.2380620E-01
   21   -1    0    0  502  501   0.0000000000E+00   0.0000000000E+00   2.2673501685E+02   2.2673501685E+02   0.0000000000E+00     0.000   1.
   21   -1    0    0  501  502   0.0000000000E+00   0.0000000000E+00  -1.7228260788E+01   1.7228260788E+01   0.0000000000E+00     0.000   1.
   25    2    1    2    0    0   0.0000000000E+00   0.0000000000E+00   2.0950675606E+02   2.4396327764E+02   1.2500000000E+02  2.286E-08  -1.
3000002    2    3    0    0    0   2.8729427792E+01  -4.2090284579E+01   3.6883431249E+01   6.3697406367E+01   1.0000000000E+01  8.841E-10   1.
3000002    2    3    0    0    0  -2.8729427792E+01   4.2090284579E+01   1.7262332481E+02   1.8026587127E+02   1.0000000000E+01  5.516E-10   1.
3000001    1    4    0    0    0   2.8411776664E+01  -3.6762354972E+01   3.1712249034E+01   5.6261590229E+01   1.0000000000E+00     0.000   1.
3000022   2   4   0   0   0   3.1765112732E-01   -5.3279296068E+00   5.1711822149E+00   7.4358161377E+00   2.5000000000E-01   7.016063E+00   0.
3000001    1    5    0    0    0  -8.5177485586E-01   4.1400837599E+00   2.3029754957E+01   2.3435772386E+01   1.0000000000E+00     0.000   1.
3000022   2   5   0   0   0   -2.7877652936E+01   3.7950200819E+01   1.4959356985E+02   1.5683009889E+02   2.5000000000E-01   2.063187E+00   0.
13    1    7    0    0    0   2.2040699009E-01  -4.0434764871E+00   3.9218442508E+00   5.6382771013E+00   1.0500000000E-01     0.000   1.
-13    1    7    0    0    0   9.7244137224E-02  -1.2844531197E+00   1.2493379641E+00   1.7975390364E+00   1.0500000000E-01     0.000  -1.
13    1    9    0    0    0  -1.0806957623E+01   1.4809786397E+01   5.8171317327E+01   6.0992075639E+01   1.0500000000E-01     0.000  -1.
-13    1    9    0    0    0  -1.7070695313E+01   2.3140414422E+01   9.1422252526E+01   9.5838023248E+01   1.0500000000E-01     0.000   1.
</event>
<event>
 13   1  9.2978750E-05  1.2500000E+02  7.5467720E-03  1.2380620E-01
   21   -1    0    0  502  501   0.0000000000E+00   0.0000000000E+00   1.9031683828E+02   1.9031683828E+02   0.0000000000E+00     0.000  -1.
   21   -1    0    0  501  502   0.0000000000E+00   0.0000000000E+00  -2.0524983681E+01   2.0524983681E+01   0.0000000000E+00     0.000  -1.
   25    2    1    2    0    0   0.0000000000E+00   0.0000000000E+00   1.6979185460E+02   2.1084182196E+02   1.2500000000E+02  1.164E-07  -1.
3000002    2    3    0    0    0   3.1338491516E+01  -2.9707136535E+01   1.5922017844E+02   1.6527456015E+02   1.0000000000E+01  4.384E-10  -1.
3000002    2    3    0    0    0  -3.1338491516E+01   2.9707136535E+01   1.0571676159E+01   4.5567261805E+01   1.0000000000E+01  1.519E-10  -1.
3000001    1    4    0    0    0   1.8173336236E+01  -1.2096348894E+01   6.7229390113E+01   7.0692168601E+01   1.0000000000E+00     0.000   1.
3000022   2   4   0   0   0   1.3165155280E+01   -1.7610787642E+01   9.1990788327E+01   9.4582391553E+01   2.5000000000E-01   4.547911E+00   0.
3000001    1    5    0    0    0  -2.3287456082E+01   2.6863117731E+01   1.0272855833E+01   3.7019782170E+01   1.0000000000E+00     0.000  -1.
3000022   2   5   0   0   0   -8.0510354344E+00   2.8440188047E+00   2.9882032622E-01   8.5474796353E+00   2.5000000000E-01   1.048799E+00   0.
13    1    7    0    0    0   4.5569420249E+00  -6.1393079599E+00   3.1775399395E+01   3.2682470142E+01   1.0500000000E-01     0.000   1.
-13    1    7    0    0    0   8.6082132547E+00  -1.1471479682E+01   6.0215388933E+01   6.1899921412E+01   1.0500000000E-01     0.000  -1.
13    1    9    0    0    0  -2.9324993684E+00   1.0122545208E+00   5.4381562135E-02   3.1045441074E+00   1.0500000000E-01     0.000   1.
-13    1    9    0    0    0  -5.1185360660E+00   1.8317642840E+00   2.4443876409E-01   5.4429355279E+00   1.0500000000E-01     0.000  -1.
</event>
<event>
 13   1  9.2978750E-05  1.2500000E+02  7.5467720E-03  1.2380620E-01
   21   -1    0    0  502  501   0.0000000000E+00   0.0000000000E+00   2.6979879084E+02   2.6979879084E+02   0.0000000000E+00     0.000  -1.
   21   -1    0    0  501  502   0.0000000000E+00   0.0000000000E+00  -1.4478382160E+01   1.4478382160E+01   0.0000000000E+00     0.000  -1.
   25    2    1    2    0    0   0.0000000000E+00   0.0000000000E+00   2.5532040868E+02   2.8427717300E+02   1.2500000000E+02  8.933E-08  -1.
3000002    2    3    0    0    0  -2.9654348173E+01  -3.7247942028E+01   3.8429105157E+01   6.1996658572E+01   1.0000000000E+01  7.643E-10  -1.
3000002    2    3    0    0    0   2.9654348173E+01   3.7247942028E+01   2.1689130352E+02   2.2228051443E+02   1.0000000000E+01  5.657E-10  -1.
3000001    1    4    0    0    0  -2.6750272505E+01  -3.5528746245E+01   3.8146993826E+01   5.8600870530E+01   1.0000000000E+00     0.000  -1.
3000022   2   4   0   0   0   -2.9040756677E+00   -1.7191957824E+00   2.8211133100E-01   3.3957880419E+00   2.5000000000E-01   3.219887E-01   0.
3000001    1    5    0    0    0   2.7325161320E+01   2.8176779909E+01   1.7742769654E+02   1.8172006732E+02   1.0000000000E+00     0.000  -1.
3000022   2   5   0   0   0   2.3291868524E+00   9.0711621188E+00   3.9463606984E+01   4.0560447110E+01   2.5000000000E-01   2.378692E-01   0.
13    1    7    0    0    0  -2.0529586087E+00  -1.2130949595E+00   2.4325554529E-01   2.3992575289E+00   1.0500000000E-01     0.000   1.
-13    1    7    0    0    0  -8.5111705909E-01  -5.0610082289E-01   3.8855785707E-02   9.9653051297E-01   1.0500000000E-01     0.000  -1.
13    1    9    0    0    0   1.0652775088E+00   4.3535783923E+00   1.8692999135E+01   1.9223103357E+01   1.0500000000E-01     0.000  -1.
-13    1    9    0    0    0   1.2639093437E+00   4.7175837265E+00   2.0770607848E+01   2.1337343753E+01   1.0500000000E-01     0.000   1.
</event>
<event>
 13   1  9.2978750E-05  1.2500000E+02  7.5467720E-03  1.2380620E-01
   21   -1    0    0  502  501   0.0000000000E+00   0.0000000000E+00   2.2070689612E+01   2.2070689612E+01   0.0000000000E+00     0.000   1.
   21   -1    0    0  501  502   0.0000000000E+00   0.0000000000E+00  -1.7698812627E+02   1.7698812627E+02   0.0000000000E+00     0.000   1.
   25    2    1    2    0    0   0.0000000000E+00   0.0000000000E+00  -1.5491743666E+02   1.9905881589E+02   1.2500000000E+02  1.315E-08  -1.
3000002    2    3    0    0    0  -5.8987700266E+01   1.7904652739E+01  -8.1399762178E+01   1.0259652360E+02   1.0000000000E+01  1.262E-10   1.
3000002    2    3    0    0    0   5.8987700266E+01  -1.7904652739E+01  -7.3517674482E+01   9.6462292289E+01   1.0000000000E+01  8.699E-10   1.
3000001    1    4    0    0    0  -2.2080642335E+01   8.8092684428E+00  -2.4370021802E+01   3.4059593935E+01   1.0000000000E+00     0.000   1.
3000022   2   4   0   0   0   -3.6907057931E+01   9.0953842964E+00   -5.7029740376E+01   6.8536929665E+01   2.5000000000E-01   9.178681E+00   0.
3000001    1    5    0    0    0   3.9303097539E+00  -3.5410968230E+00  -4.5281292690E+00   7.0349595698E+00   1.0000000000E+00     0.000  -1.
3000022   2   5   0   0   0   5.5057390512E+01   -1.4363555916E+01   -6.8989545213E+01   8.9427332719E+01   2.5000000000E-01   1.910375E+00   0.
13    1    7    0    0    0  -1.7363619734E+01   4.3474993775E+00  -2.6876353148E+01   3.2291568940E+01   1.0500000000E-01     0.000   1.
-13    1    7    0    0    0  -1.9543438198E+01   4.7478849189E+00  -3.0153387228E+01   3.6245360725E+01   1.0500000000E-01     0.000  -1.
13    1    9    0    0    0   3.3033786017E+01  -8.6097189228E+00  -4.1291958823E+01   5.3576068977E+01   1.0500000000E-01     0.000   1.
-13    1    9    0    0    0   2.2023604495E+01  -5.7538369935E+00  -2.7697586390E+01   3.5851263743E+01   1.0500000000E-01     0.000  -1.
</event>
<event>
 13   1  9.2978750E-05  1.2500000E+02  7.5467720E-03  1.2380620E-01
   21   -1    0    0  502  501   0.0000000000E+00   0.0000000000E+00   3.3841805445E+02   3.3841805445E+02   0.0000000000E+00     0.000  -1.
   21   -1    0    0  501  502   0.0000000000E+00   0.0000000000E+00  -1.1542676133E+01   1.1542676133E+01   0.0000000000E+00     0.000  -1.
   25    2    1    2    0    0   0.0000000000E+00   0.0000000000E+00   3.2687537832E+02   3.4996073059E+02   1.2500000000E+02  1.235E-08  -1.
3000002    2    3    0    0    0  -1.3053244673E+01   5.3501973156E+01   8.5578145320E+01   1.0225686913E+02   1.0000000000E+01  7.160E-11  -1.
3000002    2    3    0    0    0   1.3053244673E+01  -5.3501973156E+01   2.4129723300E+02   2.4770386146E+02   1.0000000000E+01  1.642E-09  -1.
3000001    1    4    0    0    0   1.3905405117E+00   7.7711345829E+00   1.0641604616E+01   1.3287884874E+01   1.0000000000E+00     0.000  -1.
3000022   2   4   0   0   0   -1.4443785185E+01   4.5730838573E+01   7.4936540704E+01   8.8968984258E+01   2.5000000000E-01   6.515977E+00   0.
3000001    1    5    0    0    0   5.7127459422E+00  -1.2178711988E+01   7.4202291463E+01   7.5418409890E+01   1.0000000000E+00     0.000  -1.
3000022   2   5   0   0   0   7.3404987307E+00   -4.1323261168E+01   1.6709494154E+02   1.7228545157E+02   2.5000000000E-01   1.604367E+00   0.
13    1    7    0    0    0  -3.9302902100E+00   1.2478283572E+01   2.0376791873E+01   2.4215272331E+01   1.0500000000E-01     0.000  -1.
-13    1    7    0    0    0  -1.0513494975E+01   3.3252555002E+01   5.4559748831E+01   6.4753711926E+01   1.0500000000E-01     0.000   1.
13    1    9    0    0    0   3.8378733744E+00  -2.1747030187E+01   8.7660965970E+01   9.0399770872E+01   1.0500000000E-01     0.000  -1.
-13    1    9    0    0    0   3.5026253563E+00  -1.9576230981E+01   7.9433975568E+01   8.1885680697E+01   1.0500000000E-01     0.000   1.
</event>
<event>
 13   1  9.2978750E-05  1.2500000E+02  7.5467720E-03  1.2380620E-01
   21   -1    0    0  502  501   0.0000000000E+00   0.0000000000E+00   1.8264741973E+01   1.8264741973E+01   0.0000000000E+00     0.000  -1.
   21   -1    0    0  501  502   0.0000000000E+00   0.0000000000E+00  -2.1386833747E+02   2.1386833747E+02   0.0000000000E+00     0.000  -1.
   25    2    1    2    0    0   0.0000000000E+00   0.0000000000E+00  -1.9560359549E+02   2.3213307944E+02   1.2500000000E+02  2.508E-08  -1.
3000002    2    3    0    0    0   2.7692381897E+01  -4.1965982245E+01  -3.1407170639E+01   6.0120063610E+01   1.0000000000E+01  2.839E-10  -1.
3000002    2    3    0    0    0  -2.7692381897E+01   4.1965982245E+01  -1.6419642485E+02   1.7201301583E+02   1.0000000000E+01  1.710E-10  -1.
3000001    1    4    0    0    0   2.7817227470E+01  -3.8339993319E+01  -3.0579780733E+01   5.6390391217E+01   1.0000000000E+00     0.000  -1.
3000022   2   4   0   0   0   -1.2484557299E-01   -3.6259889258E+00   -8.2738990546E-01   3.7296723935E+00   2.5000000000E-01   1.535150E+00   0.
3000001    1    5    0    0    0  -1.5477734166E+00   2.0634406178E+00  -1.8488819694E+01   1.8694647454E+01   1.0000000000E+00     0.000   1.
3000022   2   5   0   0   0   -2.6144608481E+01   3.9902541627E+01   -1.4570760516E+02   1.5331836838E+02   2.5000000000E-01   3.268049E+00   0.
13    1    7    0    0    0  -4.2729120850E-02  -1.6210764872E+00  -3.0311876086E-01   1.6530640454E+00   1.0500000000E-01     0.000  -1.
-13    1    7    0    0    0  -8.2116452144E-02  -2.0049124386E+00  -5.2427114460E-01   2.0766083481E+00   1.0500000000E-01     0.000   1.
13    1    9    0    0    0  -1.8010619951E+01   2.7559345408E+01  -1.0046444161E+02   1.0572140277E+02   1.0500000000E-01     0.000  -1.
-13    1    9    0    0    0  -8.1339885296E+00   1.2343196220E+01  -4.5243163550E+01   4.7596965610E+01   1.0500000000E-01     0.000   1.
</event>
<event>
 13   1  9.2978750E-05  1.2500000E+02  7.5467720E-03  1.2380620E-01
   21   -1    0    0  502  501   0.0000000000E+00   0.0000000000E+00   5.5436379387E+00   5.5436379387E+00   0.0000000000E+00     0.000   1.
   21   -1    0    0  501  502   0.0000000000E+00   0.0000000000E+00  -7.0463656595E+02   7.0463656595E+02   0.0000000000E+00     0.000   1.
   25    2    1    2    0    0   0.0000000000E+00   0.0000000000E+00  -6.9909292801E+02   7.1018020389E+02   1.2500000000E+02  1.107E-07  -1.
3000002    2    3    0    0    0   4.6821633084E+01  -3.2163662123E+00  -1.2203046384E+02   1.3112606317E+02   1.0000000000E+01  1.769E-11  -1.
3000002    2    3    0    0    0  -4.6821633084E+01   3.2163662123E+00  -5.7706246417E+02   5.7905414072E+02   1.0000000000E+01  1.611E-09  -1.
3000001    1    4    0    0    0   2.7743281468E+01   2.4120688114E+00  -7.7383536675E+01   8.2247914812E+01   1.0000000000E+00     0.000  -1.
3000022   2   4   0   0   0   1.9078351616E+01   -5.6284350236E+00   -4.4646927165E+01   4.8878148354E+01   2.5000000000E-01   1.150224E+00   0.
3000001    1    5    0    0    0  -1.2111837103E+01   5.0654464717E+00  -1.4601723169E+02   1.4660964257E+02   1.0000000000E+00     0.000  -1.
3000022   2   5   0   0   0   -3.4709795981E+01   -1.8490802594E+00   -4.3104523248E+02   4.3244449815E+02   2.5000000000E-01   9.968514E-01   0.
13    1    7    0    0    0   1.0223765544E+01  -3.0217820994E+00  -2.4093483066E+01   2.6346982753E+01   1.0500000000E-01     0.000   1.
-13    1    7    0    0    0   8.8545860720E+00  -2.6066529243E+00  -2.0553444099E+01   2.2531165601E+01   1.0500000000E-01     0.000  -1.
13    1    9    0    0    0  -2.0740403793E+01  -1.0427840194E+00  -2.5736528091E+02   2.5820176333E+02   1.0500000000E-01     0.000   1.
-13    1    9    0    0    0  -1.3969392188E+01  -8.0629623996E-01  -1.7367995158E+02   1.7424273482E+02   1.0500000000E-01     0.000  -1.
</event>
<event>
 13   1  9.2978750E-05  1.2500000E+02  7.5467720E-03  1.2380620E-01
   21   -1    0    0  502  501   0.0000000000E+00   0.0000000000E+00   1.7465232745E+02   1.7465232745E+02   0.0000000000E+00     0.000   1.
   21   -1    0    0  501  502   0.0000000000E+00   0.0000000000E+00  -2.2365862838E+01   2.2365862838E+01   0.0000000000E+00     0.000   1.
   25    2    1    2    0    0   0.0000000000E+00   0.0000000000E+00   1.5228646461E+02   1.9701819029E+02   1.2500000000E+02  1.839E-08  -1.
3000002    2    3    0    0    0  -1.7643593888E+01   2.0801274678E+01  -1.1077029006E+01   3.1091638829E+01   1.0000000000E+01  3.943E-10  -1.
3000002    2    3    0    0    0   1.7643593888E+01  -2.0801274678E+01   1.6336349362E+02   1.6592655146E+02   1.0000000000E+01  4.618E-10  -1.
3000001    1    4    0    0    0  -7.7951853386E+00   1.6523881897E+01  -7.4405400485E+00   1.9752600427E+01   1.0000000000E+00     0.000  -1.
3000022   2   4   0   0   0   -9.8484085489E+00   4.2773927802E+00   -3.6364889570E+00   1.1339038402E+01   2.5000000000E-01   2.236480E+00   0.
3000001    1    5    0    0    0   1.5933655221E+01  -1.4880057408E+01   1.0539874211E+02   1.0763453124E+02   1.0000000000E+00     0.000  -1.
3000022   2   5   0   0   0   1.7099386668E+00   -5.9212172698E+00   5.7964751509E+01   5.8292020223E+01   2.5000000000E-01   8.103458E+00   0.
13    1    7    0    0    0  -4.0172057186E+00   1.7680579553E+00  -1.5502147020E+00   4.6559812436E+00   1.0500000000E-01     0.000   1.
-13    1    7    0    0    0  -5.8312028303E+00   2.5093348249E+00  -2.0862742550E+00   6.6830571581E+00   1.0500000000E-01     0.000  -1.
13    1    9    0    0    0   1.2277966376E+00  -4.0916128062E+00   3.9992049794E+01   4.0219694823E+01   1.0500000000E-01     0.000   1.
-13    1    9    0    0    0   4.8214202916E-01  -1.8296044635E+00   1.7972701715E+01   1.8072325400E+01   1.0500000000E-01     0.000  -1.
</event>
<event>
 13   1  9.2978750E-05  1.2500000E+02  7.5467720E-03  1.2380620E-01
   21   -1    0    0  502  501   0.0000000000E+00   0.0000000000E+00   1.1881442388E+02   1.1881442388E+02   0.0000000000E+00     0.000  -1.
   21   -1    0    0  501  502   0.0000000000E+00   0.0000000000E+00  -3.2876900568E+01   3.2876900568E+01   0.0000000000E+00     0.000  -1.
   25    2    1    2    0    0   0.0000000000E+00   0.0000000000E+00   8.5937523315E+01   1.5169132445E+02   1.2500000000E+02  4.020E-08  -1.
3000002    2    3    0    0    0  -4.8545433586E+01  -2.3884328294E+01   6.9874313406E+00   5.5461197759E+01   1.0000000000E+01  1.821E-10  -1.
3000002    2    3    0    0    0   4.8545433586E+01   2.3884328294E+01   7.8950091974E+01   9.6230126691E+01   1.0000000000E+01  1.493E-11  -1.
3000001    1    4    0    0    0  -3.2767900366E+01  -2.0619155213E+01   2.8982389522E+00   3.8836640497E+01   1.0000000000E+00     0.000  -1.
3000022   2   4   0   0   0   -1.5777533220E+01   -3.2651730815E+00   4.0891923884E+00   1.6624557262E+01   2.5000000000E-01   3.040135E-01   0.
3000001    1    5    0    0    0   3.5297653746E+01   1.3580956626E+01   4.9108286096E+01   6.1991858386E+01   1.0000000000E+00     0.000  -1.
3000022   2   5   0   0   0   1.3247779840E+01   1.0303371668E+01   2.9841805879E+01   3.4238268305E+01   2.5000000000E-01   2.284965E+00   0.
13    1    7    0    0    0  -6.0035382874E+00  -1.2292828370E+00   1.6168066213E+00   6.3386668088E+00   1.0500000000E-01     0.000  -1.
-13    1    7    0    0    0  -9.7739949327E+00  -2.0358902444E+00   2.4723857671E+00   1.0285890453E+01   1.0500000000E-01     0.000   1.
13    1    9    0    0    0   1.0062682902E+01   7.8347182274E+00   2.2637394791E+01   2.5982745521E+01   1.0500000000E-01     0.000   1.
-13    1    9    0    0    0   3.1850969386E+00   2.4686534409E+00   7.2044110878E+00   8.2555227842E+00   1.0500000000E-01     0.000  -1.
</event>
<event>
 13   1  9.2978750E-05  1.2500000E+02  7.5467720E-03  1.2380620E-01
   21   -1    0    0  502  501   0.0000000000E+00   0.0000000000E+00   5.2422874556E+01   5.2422874556E+01   0.0000000000E+00     0.000   1.
   21   -1    0    0  501  502   0.0000000000E+00   0.0000000000E+00  -7.4514227483E+01   7.4514227483E+01   0.0000000000E+00     0.000   1.
   25    2    1    2    0    0   0.0000000000E+00   0.0000000000E+00  -2.2091352927E+01   1.2693710204E+02   1.2500000000E+02  4.327E-09  -1.
3000002    2    3    0    0    0   5.7510865298E+01   2.1069437942E+01  -3.5262563030E+00   6.2159917359E+01   1.0000000000E+01  3.496E-10   1.
3000002    2    3    0    0    0  -5.7510865298E+01  -2.1069437942E+01  -1.8565096624E+01   6.4777184681E+01   1.0000000000E+01  1.019E-09   1.
3000001    1    4    0    0    0   3.8333143763E+00   4.2130624972E+00  -7.1507785981E-01   5.8271374669E+00   1.0000000000E+00     0.000  -1.
3000022   2   4   0   0   0   5.3677550922E+01   1.6856375445E+01   -2.8111784432E+00   5.6332779892E+01   2.5000000000E-01   1.018393E+00   0.
3000001    1    5    0    0    0  -3.8165418012E+01  -1.5825946366E+01  -1.6942372917E+01   4.4666583824E+01   1.0000000000E+00     0.000  -1.
3000022   2   5   0   0   0   -1.9345447286E+01   -5.2434915757E+00   -1.6227237066E+00   2.0110600857E+01   2.5000000000E-01   3.739611E+00   0.
13    1    7    0    0    0   2.6140282675E+01   8.2792811788E+00  -1.3614828604E+00   2.7454062282E+01   1.0500000000E-01     0.000  -1.
-13    1    7    0    0    0   2.7537268247E+01   8.5770942662E+00  -1.4496955828E+00   2.8878717610E+01   1.0500000000E-01     0.000   1.
13    1    9    0    0    0  -7.7027462412E+00  -2.0920270400E+00  -7.0917547978E-01   8.0139148769E+00   1.0500000000E-01     0.000  -1.
-13    1    9    0    0    0  -1.1642701045E+01  -3.1514645357E+00  -9.1354822684E-01   1.2096685981E+01   1.0500000000E-01     0.000   1.
</event>
<event>
 13   1  9.2978750E-05  1.2500000E+02  7.5467720E-03  1.2380620E-01
   21   -1    0    0  502  501   0.0000000000E+00   0.0000000000E+00   1.5993739590E+01   1.5993739590E+01   0.0000000000E+00     0.000  -1.
   21   -1    0    0  501  502   0.0000000000E+00   0.0000000000E+00  -2.4423618866E+02   2.4423618866E+02   0.0000000000E+00     0.000  -1.
   25    2    1    2    0    0   0.0000000000E+00   0.0000000000E+00  -2.2824244907E+02   2.6022992825E+02   1.2500000000E+02  3.452E-08  -1.
3000002    2    3    0    0    0   3.4889482211E+01  -4.3180308545E+01  -5.8087829536E+01   8.0969197571E+01   1.0000000000E+01  8.625E-10   1.
3000002    2    3    0    0    0  -3.4889482211E+01   4.3180308545E+01  -1.7015461953E+02   1.7926073068E+02   1.0000000000E+01  1.087E-09   1.
3000001    1    4    0    0    0   1.4545889172E+01  -2.4884234440E+01  -2.6358509151E+01   3.9071460430E+01   1.0000000000E+00     0.000  -1.
3000022   2   4   0   0   0   2.0343593039E+01   -1.8296074105E+01   -3.1729320385E+01   4.1897737141E+01   2.5000000000E-01   6.527602E+00   0.
3000001    1    5    0    0    0  -2.5612829282E+00   8.0412870966E+00  -3.0901002394E+01   3.2048313799E+01   1.0000000000E+00     0.000   1.
3000022   2   5   0   0   0   -3.2328199282E+01   3.5139021449E+01   -1.3925361714E+02   1.4721241688E+02   2.5000000000E-01   7.458948E+00   0.
13    1    7    0    0    0   1.1516259479E+01  -1.0324112420E+01  -1.8029268433E+01   2.3754516936E+01   1.0500000000E-01     0.000  -1.
-13    1    7    0    0    0   8.8273335595E+00  -7.9719616850E+00  -1.3700051953E+01   1.8143220204E+01   1.0500000000E-01     0.000   1.
13    1    9    0    0    0  -1.8395203377E+01   2.0066441312E+01  -7.9255869449E+01   8.3800652989E+01   1.0500000000E-01     0.000  -1.
-13    1    9    0    0    0  -1.3932995906E+01   1.5072580136E+01  -5.9997747691E+01   6.3411763892E+01   1.0500000000E-01     0.000   1.
</event>
<event>
 13   1  9.2978750E-05  1.2500000E+02  7.5467720E-03  1.2380620E-01
   21   -1    0    0  502  501   0.0000000000E+00   0.0000000000E+00   7.8065951263E+01   7.8065951263E+01   0.0000000000E+00     0.000  -1.
   21   -1    0    0  501  502   0.0000000000E+00   0.0000000000E+00  -5.0037819777E+01   5.0037819777E+01   0.0000000000E+00     0.000  -1.
   25    2    1    2    0    0   0.0000000000E+00   0.0000000000E+00   2.8028131486E+01   1.2810377104E+02   1.2500000000E+02  7.248E-08  -1.
3000002    2    3    0    0    0  -5.9788772293E+01  -8.0616945561E+00   7.8772858454E-01   6.1158063473E+01   1.0000000000E+01  7.314E-10  -1.
3000002    2    3    0    0    0   5.9788772293E+01   8.0616945561E+00   2.7240402901E+01   6.6945707567E+01   1.0000000000E+01  2.233E-10  -1.
3000001    1    4    0    0    0  -1.9749127122E+01  -3.8928068970E+00  -4.2196938242E+00   2.0590963639E+01   1.0000000000E+00     0.000  -1.
3000022   2   4   0   0   0   -4.0039645171E+01   -4.1688876590E+00   5.0074224088E+00   4.0567099834E+01   2.5000000000E-01   3.122677E+00   0.
3000001    1    5    0    0    0   3.6811232454E+01   8.0821212885E+00   2.0905920519E+01   4.3109686058E+01   1.0000000000E+00     0.000  -1.
3000022   2   5   0   0   0   2.2977539839E+01   -2.0426732484E-02   6.3344823822E+00   2.3836021509E+01   2.5000000000E-01   2.295578E+00   0.
13    1    7    0    0    0  -1.5836738837E+01  -1.6220590982E+00   2.0372821487E+00   1.6049763745E+01   1.0500000000E-01     0.000  -1.
-13    1    7    0    0    0  -2.4202906334E+01  -2.5468285608E+00   2.9701402601E+00   2.4517336089E+01   1.0500000000E-01     0.000   1.
13    1    9    0    0    0   1.1333777364E+01   5.7652967916E-02   3.1277815982E+00   1.1758055789E+01   1.0500000000E-01     0.000   1.
-13    1    9    0    0    0   1.1643762475E+01  -7.8079700400E-02   3.2067007840E+00   1.2077965720E+01   1.0500000000E-01     0.000  -1.
</event>
<event>
 13   1  9.2978750E-05  1.2500000E+02  7.5467720E-03  1.2380620E-01
   21   -1    0    0  502  501   0.0000000000E+00   0.0000000000E+00   3.4264256492E+02   3.4264256492E+02   0.0000000000E+00     0.000  -1.
   21   -1    0    0  501  502   0.0000000000E+00   0.0000000000E+00  -1.1400364111E+01   1.1400364111E+01   0.0000000000E+00     0.000  -1.
   25    2    1    2    0    0   0.0000000000E+00   0.0000000000E+00   3.3124220081E+02   3.5404292903E+02   1.2500000000E+02  4.474E-09  -1.
3000002    2    3    0    0    0  -5.3459801535E+01   1.3131522409E+01   8.6728120628E+01   1.0320927366E+02   1.0000000000E+01  2.529E-10  -1.
3000002    2    3    0    0    0   5.3459801535E+01  -1.3131522409E+01   2.4451408018E+02   2.5083365537E+02   1.0000000000E+01  1.559E-09  -1.
3000001    1    4    0    0    0  -1.7540436242E+01   3.8555960210E+00   2.0288577530E+01   2.7113813867E+01   1.0000000000E+00     0.000  -1.
3000022   2   4   0   0   0   -3.5919365293E+01   9.2759263883E+00   6.6439543098E+01   7.6095459789E+01   2.5000000000E-01   2.093381E+00   0.
3000001    1    5    0    0    0   4.8079100885E+01  -1.3336658839E+01   2.0679636381E+02   2.1273270199E+02   1.0000000000E+00     0.000  -1.
3000022   2   5   0   0   0   5.3807006500E+00   2.0513643014E-01   3.7717716373E+01   3.8100953385E+01   2.5000000000E-01   2.855763E+00   0.
13    1    7    0    0    0  -2.6127603071E+01   6.7498527949E+00   4.8252640539E+01   5.5285988270E+01   1.0500000000E-01     0.000   1.
-13    1    7    0    0    0  -9.7917622224E+00   2.5260735933E+00   1.8186902559E+01   2.0809471519E+01   1.0500000000E-01     0.000  -1.
13    1    9    0    0    0   4.0209933858E+00   1.3345667808E-01   2.8020216124E+01   2.8307768106E+01   1.0500000000E-01     0.000  -1.
-13    1    9    0    0    0   1.3597072643E+00   7.1679752058E-02   9.6975002489E+00   9.7931852790E+00   1.0500000000E-01     0.000   1.
</event>
<event>
 13   1  9.2978750E-05  1.2500000E+02  7.5467720E-03  1.2380620E-01
   21   -1    0    0  502  501   0.0000000000E+00   0.0000000000E+00   3.9440041191E+02   3.9440041191E+02   0.0000000000E+00     0.000   1.
   21   -1    0    0  501  502   0.0000000000E+00   0.0000000000E+00  -9.9042746459E+00   9.9042746459E+00   0.0000000000E+00     0.000   1.
   25    2    1    2    0    0   0.0000000000E+00   0.0000000000E+00   3.8449613726E+02   4.0430468655E+02   1.2500000000E+02  6.584E-09  -1.
3000002    2    3    0    0    0   4.3285123075E+01   2.7771598719E+01   3.0247485229E+02   3.0697866350E+02   1.0000000000E+01  2.413E-09   1.
3000002    2    3    0    0    0  -4.3285123075E+01  -2.7771598719E+01   8.2021284969E+01   9.7326023051E+01   1.0000000000E+01  2.149E-10   1.
3000001    1    4    0    0    0   1.4557975508E+01   1.4674353166E+01   1.0959372089E+02   1.1153051130E+02   1.0000000000E+00     0.000  -1.
3000022   2   4   0   0   0   2.8727147567E+01   1.3097245552E+01   1.9288113140E+02   1.9544815220E+02   2.5000000000E-01   4.219319E+00   0.
3000001    1    5    0    0    0  -1.3078816632E+01  -1.3585803673E+01   2.6351950642E+01   3.2419975456E+01   1.0000000000E+00     0.000   1.
3000022   2   5   0   0   0   -3.0206306443E+01   -1.4185795045E+01   5.5669334327E+01   6.4906047595E+01   2.5000000000E-01   2.700666E+00   0.
13    1    7    0    0    0   1.0233091312E+01   4.7186254118E+00   6.8650154403E+01   6.9568932061E+01   1.0500000000E-01     0.000   1.
-13    1    7    0    0    0   1.8494056256E+01   8.3786201403E+00   1.2423097699E+02   1.2587922014E+02   1.0500000000E-01     0.000  -1.
13    1    9    0    0    0  -7.0054736385E+00  -3.2791218478E+00   1.2909283746E+01   1.5049582481E+01   1.0500000000E-01     0.000  -1.
-13    1    9    0    0    0  -2.3200832805E+01  -1.0906673197E+01   4.2760050580E+01   4.9856465114E+01   1.0500000000E-01     0.000   1.
</event>
<event>
 13   1  9.2978750E-05  1.2500000E+02  7.5467720E-03  1.2380620E-01
   21   -1    0    0  502  501   0.0000000000E+00   0.0000000000E+00   3.8459055889E+00   3.8459055889E+00   0.0000000000E+00     0.000   1.
   21   -1    0    0  501  502   0.0000000000E+00   0.0000000000E+00  -1.0156905597E+03   1.0156905597E+03   0.0000000000E+00     0.000   1.
   25    2    1    2    0    0   0.0000000000E+00   0.0000000000E+00  -1.0118446541E+03   1.0195364652E+03   1.2500000000E+02  3.621E-08  -1.
3000002    2    3    0    0    0   1.6291828363E+01  -1.8720516559E+01  -9.6661698929E+02   9.6698722091E+02   1.0000000000E+01  1.977E-10  -1.
3000002    2    3    0    0    0  -1.6291828363E+01   1.8720516559E+01  -4.5227664806E+01   5.2549244290E+01   1.0000000000E+01  6.319E-10  -1.
3000001    1    4    0    0    0   1.2099087164E+01  -1.0425239445E+01  -4.4553952226E+02   4.4582680429E+02   1.0000000000E+00     0.000   1.
3000022   2   4   0   0   0   4.1927411990E+00   -8.2952771136E+00   -5.2107746703E+02   5.2116041662E+02   2.5000000000E-01   1.260898E-01   0.
3000001    1    5    0    0    0  -1.0442409249E+01   1.7178149574E+01  -3.8855596137E+01   4.3759457090E+01   1.0000000000E+00     0.000  -1.
3000022   2   5   0   0   0   -5.8494191141E+00   1.5423669850E+00   -6.3720686697E+00   8.7897871999E+00   2.5000000000E-01   4.684637E-01   0.
13    1    7    0    0    0   1.7132477184E+00  -3.3595568633E+00  -2.0797165921E+02   2.0800587468E+02   1.0500000000E-01     0.000   1.
-13    1    7    0    0    0   2.4794934806E+00  -4.9357202503E+00  -3.1310580782E+02   3.1315454194E+02   1.0500000000E-01     0.000  -1.
13    1    9    0    0    0  -3.3914966281E+00   9.6103869408E-01  -3.7149091159E+00   5.1222475037E+00   1.0500000000E-01     0.000   1.
-13    1    9    0    0    0  -2.4579224860E+00   5.8132829091E-01  -2.6571595538E+00   3.6675396962E+00   1.0500000000E-01     0.000  -1.
</event>
<event>
 13   1  9.2978750E-05  1.2500000E+02  7.5467720E-03  1.2380620E-01
   21   -1    0    0  502  501   0.0000000000E+00   0.0000000000E+00   3.4398686370E+02   3.4398686370E+02   0.0000000000E+00     0.000   1.
   21   -1    0    0  501  502   0.0000000000E+00   0.0000000000E+00  -1.1355811551E+01   1.1355811551E+01   0.0000000000E+00     0.000   1.
   25    2    1    2    0    0   0.0000000000E+00   0.0000000000E+00   3.3263105215E+02   3.5534267525E+02   1.2500000000E+02  7.625E-08  -1.
3000002    2    3    0    0    0  -5.6947065637E+01  -2.3691224508E+01   1.6228765488E+02   1.7390090664E+02   1.0000000000E+01  4.436E-10  -1.
3000002    2    3    0    0    0   5.6947065637E+01   2.3691224508E+01   1.7034339727E+02   1.8144176861E+02   1.0000000000E+01  5.949E-11  -1.
3000001    1    4    0    0    0  -4.2302568418E+01  -2.1782362878E+01   1.1906905046E+02   1.2822798994E+02   1.0000000000E+00     0.000  -1.
3000022   2   4   0   0   0   -1.4644497219E+01   -1.9088616300E+00   4.3218604418E+01   4.5672916694E+01   2.5000000000E-01   1.650578E+00   0.
3000001    1    5    0    0    0   9.7432830065E+00   3.6479952493E+00   1.9582118880E+01   2.2196819882E+01   1.0000000000E+00     0.000  -1.
3000022   2   5   0   0   0   4.7203782630E+01   2.0043229258E+01   1.5076127839E+02   1.5924494873E+02   2.5000000000E-01   7.862116E+00   0.
13    1    7    0    0    0  -4.5567203930E+00  -5.6322441455E-01   1.3555651769E+01   1.4312499514E+01   1.0500000000E-01     0.000  -1.
-13    1    7    0    0    0  -1.0087776826E+01  -1.3456372155E+00   2.9662952649E+01   3.1360417179E+01   1.0500000000E-01     0.000   1.
13    1    9    0    0    0   3.3832965826E+01   1.4326850874E+01   1.0795060566E+02   1.1403189256E+02   1.0500000000E-01     0.000  -1.
-13    1    9    0    0    0   1.3370816804E+01   5.7163783844E+00   4.2810672732E+01   4.5213056174E+01   1.0500000000E-01     0.000   1.
</event>
<event>
 13   1  9.2978750E-05  1.2500000E+02  7.5467720E-03  1.2380620E-01
   21   -1    0    0  502  501   0.0000000000E+00   0.0000000000E+00   1.3407198377E+02   1.3407198377E+02   0.0000000000E+00     0.000  -1.
   21   -1    0    0  501  502   0.0000000000E+00   0.0000000000E+00  -2.9135468054E+01   2.9135468054E+01   0.0000000000E+00     0.000  -1.
   25    2    1    2    0    0   0.0000000000E+00   0.0000000000E+00   1.0493651571E+02   1.6320745182E+02   1.2500000000E+02  1.693E-08  -1.
3000002    2    3    0    0    0  -1.2595936215E+01   3.3304224374E+01  -1.3314458028E+01   3.9307807913E+01   1.0000000000E+01  2.100E-10   1.
3000002    2    3    0    0    0   1.2595936215E+01  -3.3304224374E+01   1.1825097374E+02   1.2389964391E+02   1.0000000000E+01  1.577E-09   1.
3000001    1    4    0    0    0  -1.1723080554E+01   2.4160962474E+01  -1.3592386344E+01   3.0115373016E+01   1.0000000000E+00     0.000   1.
3000022   2   4   0   0   0   -8.7285566013E-01   9.1432619006E+00   2.7792831555E-01   9.1924348970E+00   2.5000000000E-01   5.328021E+00   0.
3000001    1    5    0    0    0   1.0656455232E+01  -1.4421836230E+01   5.4570911531E+01   5.7450272268E+01   1.0000000000E+00     0.000   1.
3000022   2   5   0   0   0   1.9394809825E+00   -1.8882388144E+01   6.3680062208E+01   6.6449371640E+01   2.5000000000E-01   1.196341E+01   0.
13    1    7    0    0    0  -6.2195801656E-01   6.0095758581E+00   2.0995311366E-01   6.0462334622E+00   1.0500000000E-01     0.000   1.
-13    1    7    0    0    0  -2.5089764357E-01   3.1336860424E+00   6.7975201892E-02   3.1462014348E+00   1.0500000000E-01     0.000  -1.
13    1    9    0    0    0   1.2404052228E+00  -1.2517672760E+01   4.2303736175E+01   4.4134429370E+01   1.0500000000E-01     0.000  -1.
-13    1    9    0    0    0   6.9907575978E-01  -6.3647153839E+00   2.1376326033E+01   2.2314942270E+01   1.0500000000E-01     0.000   1.
</event>
<event>
 13   1  9.2978750E-05  1.2500000E+02  7.5467720E-03  1.2380620E-01
   21   -1    0    0  502  501   0.0000000000E+00   0.0000000000E+00   5.2067294135E+01   5.2067294135E+01   0.0000000000E+00     0.000   1.
   21   -1    0    0  501  502   0.0000000000E+00   0.0000000000E+00  -7.5023103560E+01   7.5023103560E+01   0.0000000000E+00     0.000   1.
   25    2    1    2    0    0   0.0000000000E+00   0.0000000000E+00  -2.2955809425E+01   1.2709039770E+02   1.2500000000E+02  2.547E-08  -1.
3000002    2    3    0    0    0   5.8144499177E+01  -2.0131196142E+01  -1.6047751122E+01   6.4370631182E+01   1.0000000000E+01  6.131E-10   1.
3000002    2    3    0    0    0  -5.8144499177E+01   2.0131196142E+01  -6.9080583026E+00   6.2719766518E+01   1.0000000000E+01  1.972E-10   1.
3000001    1    4    0    0    0   1.3844595623E+01  -4.6949113633E+00   3.9812085321E-01   1.4658564763E+01   1.0000000000E+00     0.000  -1.
3000022   2   4   0   0   0   4.4299903553E+01   -1.5436284779E+01   -1.6445871976E+01   4.9712066419E+01   2.5000000000E-01   2.550798E+00   0.
3000001    1    5    0    0    0  -3.0410878690E+01   1.2417383970E+01  -8.3108395258E+00   3.3898127101E+01   1.0000000000E+00     0.000   1.
3000022   2   5   0   0   0   -2.7733620487E+01   7.7138121716E+00   1.4027812232E+00   2.8821639417E+01   2.5000000000E-01   6.029415E+00   0.
13    1    7    0    0    0   2.3809202219E+01  -8.3663697232E+00  -8.8347690141E+00   2.6738332431E+01   1.0500000000E-01     0.000  -1.
-13    1    7    0    0    0   2.0490701334E+01  -7.0699150553E+00  -7.6111029615E+00   2.2973733988E+01   1.0500000000E-01     0.000   1.
13    1    9    0    0    0  -1.7098445683E+01   4.7004959075E+00   8.9456473709E-01   1.7755640726E+01   1.0500000000E-01     0.000  -1.
-13    1    9    0    0    0  -1.0635174805E+01   3.0133162641E+00   5.0821648610E-01   1.1065998691E+01   1.0500000000E-01     0.000   1.
</event>
<event>
 13   1  9.2978750E-05  1.2500000E+02  7.5467720E-03  1.2380620E-01
   21   -1    0    0  502  501   0.0000000000E+00   0.0000000000E+00   1.4244386155E+02   1.4244386155E+02   0.0000000000E+00     0.000   1.
   21   -1    0    0  501  502   0.0000000000E+00   0.0000000000E+00  -2.7423084137E+01   2.7423084137E+01   0.0000000000E+00     0.000   1.
   25    2    1    2    0    0   0.0000000000E+00   0.0000000000E+00   1.1502077741E+02   1.6986694568E+02   1.2500000000E+02  6.445E-08  -1.
3000002    2    3    0    0    0   1.9758788829E+01  -3.6697225358E+01   1.1932558653E+02   1.2678995105E+02   1.0000000000E+01  9.625E-10   1.
3000002    2    3    0    0    0  -1.9758788829E+01   3.6697225358E+01  -4.3048091237E+00   4.3076994633E+01   1.0000000000E+01  5.946E-11   1.
3000001    1    4    0    0    0   7.6245902313E+00  -5.9231462944E+00   2.4063493486E+01   2.5947442205E+01   1.0000000000E+00     0.000  -1.
3000022   2   4   0   0   0   1.2134198598E+01   -3.0774079064E+01   9.5262093047E+01   1.0084250884E+02   2.5000000000E-01   1.193624E+01   0.
3000001    1    5    0    0    0  -1.8282361105E+01   2.8080078854E+01  -6.2926171239E+00   3.4107661695E+01   1.0000000000E+00     0.000   1.
3000022   2   5   0   0   0   -1.4764277236E+00   8.6171465043E+00   1.9878080002E+00   8.9693329376E+00   2.5000000000E-01   9.837361E-01   0.
13    1    7    0    0    0   5.4648036075E+00  -1.3959023612E+01   4.3339966374E+01   4.5859373403E+01   1.0500000000E-01     0.000  -1.
-13    1    7    0    0    0   6.6693949900E+00  -1.6815055452E+01   5.1922126674E+01   5.4983135439E+01   1.0500000000E-01     0.000   1.
13    1    9    0    0    0  -7.7401331402E-01   4.1308350231E+00   9.7360481868E-01   4.3153013732E+00   1.0500000000E-01     0.000   1.
-13    1    9    0    0    0  -7.0241440954E-01   4.4863114812E+00   1.0142031815E+00   4.6540315644E+00   1.0500000000E-01     0.000  -1.
</event>
<event>
 13   1  9.2978750E-05  1.2500000E+02  7.5467720E-03  1.2380620E-01
   21   -1    0    0  502  501   0.0000000000E+00   0.0000000000E+00   5.6466253411E+02   5.6466253411E+02   0.0000000000E+00     0.000  -1.
   21   -1    0    0  501  502   0.0000000000E+00   0.0000000000E+00  -6.9178487398E+00   6.9178487398E+00   0.0000000000E+00     0.000  -1.
   25    2    1    2    0    0   0.0000000000E+00   0.0000000000E+00   5.5774468537E+02   5.7158038285E+02   1.2500000000E+02  2.165E-08  -1.
3000002    2    3    0    0    0   7.1162749401E+00   4.1935877957E+01   7.4531429022E+01   8.6395562046E+01   1.0000000000E+01  4.539E-11  -1.
3000002    2    3    0    0    0  -7.1162749401E+00  -4.1935877957E+01   4.8321325635E+02   4.8518482080E+02   1.0000000000E+01  1.949E-10  -1.
3000001    1    4    0    0    0  -2.2320654348E+00   1.2797606814E+01   2.0166007332E+01   2.4008929755E+01   1.0000000000E+00     0.000   1.
3000022   2   4   0   0   0   9.3483403750E+00   2.9138271143E+01   5.4365421691E+01   6.2386632291E+01   2.5000000000E-01   1.941735E+00   0.
3000001    1    5    0    0    0  -7.7510981811E+00  -2.8443038563E+01   3.6851435534E+02   3.6969300244E+02   1.0000000000E+00     0.000  -1.
3000022   2   5   0   0   0   6.3482324099E-01   -1.3492839394E+01   1.1469890101E+02   1.1549181836E+02   2.5000000000E-01   1.738272E+00   0.
13    1    7    0    0    0   4.1893503932E+00   1.2881978908E+01   2.4144765992E+01   2.7685317176E+01   1.0500000000E-01     0.000  -1.
-13    1    7    0    0    0   5.1589899818E+00   1.6256292235E+01   3.0220655699E+01   3.4701315115E+01   1.0500000000E-01     0.000   1.
13    1    9    0    0    0   1.7096732008E-01  -4.7170099353E+00   4.0291535490E+01   4.0567206826E+01   1.0500000000E-01     0.000  -1.
-13    1    9    0    0    0   4.6385592091E-01  -8.7758294585E+00   7.4407365520E+01   7.4924611535E+01   1.0500000000E-01     0.000   1.
</event>
<event>
 13   1  9.2978750E-05  1.2500000E+02  7.5467720E-03  1.2380620E-01
   21   -1    0    0  502  501   0.0000000000E+00   0.0000000000E+00   9.6197587991E+00   9.6197587991E+00   0.0000000000E+00     0.000   1.
   21   -1    0    0  501  502   0.0000000000E+00   0.0000000000E+00  -4.0606527477E+02   4.0606527477E+02   0.0000000000E+00     0.000   1.
   25    2    1    2    0    0   0.0000000000E+00   0.0000000000E+00  -3.9644551597E+02   4.1568503357E+02   1.2500000000E+02  1.489E-08  -1.
3000002    2    3    0    0    0  -5.4206563820E+01  -7.0449015221E+00  -2.9334938688E+02   2.9856631589E+02   1.0000000000E+01  8.287E-10  -1.
3000002    2    3    0    0    0   5.4206563820E+01   7.0449015221E+00  -1.0309612909E+02   1.1711871768E+02   1.0000000000E+01  6.281E-10  -1.
3000001    1    4    0    0    0  -4.8342974559E+01  -3.5037773015E+00  -2.6516655584E+02   2.6956190751E+02   1.0000000000E+00     0.000  -1.
3000022   2   4   0   0   0   -5.8635892611E+00   -3.5411242206E+00   -2.8182831041E+01   2.9004408377E+01   2.5000000000E-01   5.253313E+00   0.
3000001    1    5    0    0    0   7.9038687162E+00   4.1767102658E+00  -2.0475709189E+01   2.2364496778E+01   1.0000000000E+00     0.000   1.
3000022   2   5   0   0   0   4.6302695103E+01   2.8681912563E+00   -8.2620419896E+01   9.4754220902E+01   2.5000000000E-01   7.167837E+00   0.
13    1    7    0    0    0  -4.4790182493E+00  -2.7002390549E+00  -2.1574933611E+01   2.2200037854E+01   1.0500000000E-01     0.000   1.
-13    1    7    0    0    0  -1.3845710117E+00  -8.4088516573E-01  -6.6078974306E+00   6.8043705221E+00   1.0500000000E-01     0.000  -1.
13    1    9    0    0    0   2.2926760535E+01   1.4584620368E+00  -4.0799261946E+01   4.6822582805E+01   1.0500000000E-01     0.000  -1.
-13    1    9    0    0    0   2.3375934568E+01   1.4097292195E+00  -4.1821157950E+01   4.7931638098E+01   1.0500000000E-01     0.000   1.
</event>
<event>
 13   1  9.2978750E-05  1.2500000E+02  7.5467720E-03  1.2380620E-01
   21   -1    0    0  502  501   0.0000000000E+00   0.0000000000E+00   2.2948901940E+02   2.2948901940E+02   0.0000000000E+00     0.000   1.
   21   -1    0    0  501  502   0.0000000000E+00   0.0000000000E+00  -1.7021511575E+01   1.7021511575E+01   0.0000000000E+00     0.000   1.
   25    2    1    2    0    0   0.0000000000E+00   0.0000000000E+00   2.1246750782E+02   2.4651053097E+02   1.2500000000E+02  1.278E-07  -1.
3000002    2    3    0    0    0  -4.2467977584E+01   3.5676445494E+01   5.2954179057E+01   7.7333582374E+01   1.0000000000E+01  4.748E-10   1.
3000002    2    3    0    0    0   4.2467977584E+01  -3.5676445494E+01   1.5951332876E+02   1.6917694860E+02   1.0000000000E+01  1.417E-09   1.
3000001    1    4    0    0    0  -3.6244535684E+01   3.4394429279E+01   4.7667512809E+01   6.9063991413E+01   1.0000000000E+00     0.000   1.
3000022   2   4   0   0   0   -6.2234418997E+00   1.2820162154E+00   5.2866662473E+00   8.2695909612E+00   2.5000000000E-01   1.621474E-01   0.
3000001    1    5    0    0    0   2.0106427522E+01  -1.2599417743E+01   5.7150534936E+01   6.1888588598E+01   1.0000000000E+00     0.000  -1.
3000022   2   5   0   0   0   2.2361550062E+01   -2.3077027751E+01   1.0236279383E+02   1.0728836000E+02   2.5000000000E-01   9.564201E+00   0.
13    1    7    0    0    0  -3.0952969486E+00   6.9922802539E-01   2.6800104024E+00   4.1549083972E+00   1.0500000000E-01     0.000  -1.
-13    1    7    0    0    0  -3.1281449511E+00   5.8278819001E-01   2.6066558448E+00   4.1146825641E+00   1.0500000000E-01     0.000   1.
13    1    9    0    0    0   1.0832637715E+01  -1.1257843878E+01   4.9634290970E+01   5.2035170354E+01   1.0500000000E-01     0.000   1.
-13    1    9    0    0    0   1.1528912347E+01  -1.1819183873E+01   5.2728502857E+01   5.5253189644E+01   1.0500000000E-01     0.000  -1.
</event>
<event>
 13   1  9.2978750E-05  1.2500000E+02  7.5467720E-03  1.2380620E-01
   21   -1    0    0  502  501   0.0000000000E+00   0.0000000000E+00   2.2112231158E+02   2.2112231158E+02   0.0000000000E+00     0.000  -1.
   21   -1    0    0  501  502   0.0000000000E+00   0.0000000000E+00  -1.7665562431E+01   1.7665562431E+01   0.0000000000E+00     0.000  -1.
   25    2    1    2    0    0   0.0000000000E+00   0.0000000000E+00   2.0345674914E+02   2.3878787401E+02   1.2500000000E+02  7.097E-08  -1.
3000002    2    3    0    0    0   2.5675856685E+01  -7.3519579401E+00  -4.5117673728E+00   2.8873118067E+01   1.0000000000E+01  5.116E-10   1.
3000002    2    3    0    0    0  -2.5675856685E+01   7.3519579401E+00   2.0796851651E+02   2.0991475594E+02   1.0000000000E+01  1.940E-10   1.
3000001    1    4    0    0    0   1.1283944348E+01  -3.6091894272E+00   2.9264287689E+00   1.2244085662E+01   1.0000000000E+00     0.000   1.
3000022   2   4   0   0   0   1.4391912338E+01   -3.7427685128E+00   -7.4381961417E+00   1.6629032405E+01   2.5000000000E-01   9.770256E-01   0.
3000001    1    5    0    0    0  -1.9768794971E+01   9.5553844537E+00   1.7175435219E+02   1.7315504071E+02   1.0000000000E+00     0.000   1.
3000022   2   5   0   0   0   -5.9070617147E+00   -2.2034265137E+00   3.6214164321E+01   3.6759715232E+01   2.5000000000E-01   9.082012E+00   0.
13    1    7    0    0    0   5.7772512528E+00  -1.4374733132E+00  -2.9836548697E+00   6.6600437645E+00   1.0500000000E-01     0.000  -1.
-13    1    7    0    0    0   8.6146610851E+00  -2.3052951997E+00  -4.4545412720E+00   9.9689886404E+00   1.0500000000E-01     0.000   1.
13    1    9    0    0    0  -3.5594021746E+00  -1.2859351354E+00   2.2019724777E+01   2.2342835032E+01   1.0500000000E-01     0.000   1.
-13    1    9    0    0    0  -2.3476595401E+00  -9.1749137830E-01   1.4194439544E+01   1.4416880200E+01   1.0500000000E-01     0.000  -1.
</event>
<event>
 13   1  9.2978750E-05  1.2500000E+02  7.5467720E-03  1.2380620E-01
   21   -1    0    0  502  501   0.0000000000E+00   0.0000000000E+00   2.7277925856E+02   2.7277925856E+02   0.0000000000E+00     0.000   1.
   21   -1    0    0  501  502   0.0000000000E+00   0.0000000000E+00  -1.4320187028E+01   1.4320187028E+01   0.0000000000E+00     0.000   1.
   25    2    1    2    0    0   0.0000000000E+00   0.0000000000E+00   2.5845907153E+02   2.8709944559E+02   1.2500000000E+02  1.945E-08  -1.
3000002    2    3    0    0    0  -4.8443349499E+01   1.9463837974E+01   5.3726389248E+01   7.5578594859E+01   1.0000000000E+01  1.662E-10   1.
3000002    2    3    0    0    0   4.8443349499E+01  -1.9463837974E+01   2.0473268228E+02   2.1152085073E+02   1.0000000000E+01  7.944E-11   1.
3000001    1    4    0    0    0  -8.4432134053E+00   7.0720235455E+00   1.4158790065E+01   1.7965876147E+01   1.0000000000E+00     0.000   1.
3000022   2   4   0   0   0   -4.0000136093E+01   1.2391814428E+01   3.9567599183E+01   5.7612718712E+01   2.5000000000E-01   1.575108E+00   0.
3000001    1    5    0    0    0   2.8723831995E+01  -1.4018370395E+01   1.0731736244E+02   1.1198030860E+02   1.0000000000E+00     0.000  -1.
3000022   2   5   0   0   0   1.9719517503E+01   -5.4454675784E+00   9.7415319845E+01   9.9540542133E+01   2.5000000000E-01   1.453247E+01   0.
13    1    7    0    0    0  -2.4783199068E+01   7.6141501948E+00   2.4504659694E+01   3.5674523276E+01   1.0500000000E-01     0.000  -1.
-13    1    7    0    0    0  -1.5216937025E+01   4.7776642333E+00   1.5062939489E+01   2.1938195436E+01   1.0500000000E-01     0.000   1.
13    1    9    0    0    0   4.6962408130E+00  -1.2848518254E+00   2.3252892983E+01   2.3757389988E+01   1.0500000000E-01     0.000   1.
-13    1    9    0    0    0   1.5023276690E+01  -4.1606157531E+00   7.4162426862E+01   7.5783152145E+01   1.0500000000E-01     0.000  -1.
</event>
<event>
 13   1  9.2978750E-05  1.2500000E+02  7.5467720E-03  1.2380620E-01
   21   -1    0    0  502  501   0.0000000000E+00   0.0000000000E+00   1.4571051160E+02   1.4571051160E+02   0.0000000000E+00     0.000  -1.
   21   -1    0    0  501  502   0.0000000000E+00   0.0000000000E+00  -2.6808292395E+01   2.6808292395E+01   0.0000000000E+00     0.000  -1.
   25    2    1    2    0    0   0.0000000000E+00   0.0000000000E+00   1.1890221920E+02   1.7251880399E+02   1.2500000000E+02  8.416E-08  -1.
3000002    2    3    0    0    0   3.6386506719E+01   3.2071526486E+01   6.8297305840E+00   4.9992058392E+01   1.0000000000E+01  5.085E-10  -1.
3000002    2    3    0    0    0  -3.6386506719E+01  -3.2071526486E+01   1.1207248862E+02   1.2252674560E+02   1.0000000000E+01  7.313E-10  -1.
3000001    1    4    0    0    0   3.5672368940E+01   3.2082878727E+01   7.9482775666E+00   4.8641588476E+01   1.0000000000E+00     0.000  -1.
3000022   2   4   0   0   0   7.1413777889E-01   -1.1352240388E-02   -1.1185469826E+00   1.3504699156E+00   2.5000000000E-01   1.667152E+00   0.
3000001    1    5    0    0    0  -2.2014802342E+01  -2.0117309363E+01   8.0264855744E+01   8.5631797399E+01   1.0000000000E+00     0.000  -1.
3000022   2   5   0   0   0   -1.4371704377E+01   -1.1954217123E+01   3.1807632872E+01   3.6894948199E+01   2.5000000000E-01   5.457850E+00   0.
13    1    7    0    0    0   5.5720028661E-01  -4.1927200710E-03  -8.6420544832E-01   1.0336178187E+00   1.0500000000E-01     0.000   1.
-13    1    7    0    0    0   1.5693749228E-01  -7.1595203168E-03  -2.5434153426E-01   3.1685209683E-01   1.0500000000E-01     0.000  -1.
13    1    9    0    0    0  -8.9887241268E+00  -7.4062640823E+00   1.9763630483E+01   2.2940401564E+01   1.0500000000E-01     0.000   1.
-13    1    9    0    0    0  -5.3829802502E+00  -4.5479530407E+00   1.2044002389E+01   1.3954546635E+01   1.0500000000E-01     0.000  -1.
</event>
<event>
 13   1  9.2978750E-05  1.2500000E+02  7.5467720E-03  1.2380620E-01
   21   -1    0    0  502  501   0.0000000000E+00   0.0000000000E+00   2.3538529371E+00   2.3538529371E+00   0.0000000000E+00     0.000  -1.
   21   -1    0    0  501  502   0.0000000000E+00   0.0000000000E+00  -1.6595131915E+03   1.6595131915E+03   0.0000000000E+00     0.000  -1.
   25    2    1    2    0    0   0.0000000000E+00   0.0000000000E+00  -1.6571593386E+03   1.6618670445E+03   1.2500000000E+02  5.998E-08  -1.
3000002    2    3    0    0    0   5.7934167693E+01   2.0325287956E+01  -7.4796705905E+02   7.5054926989E+02   1.0000000000E+01  3.814E-10   1.
3000002    2    3    0    0    0  -5.7934167693E+01  -2.0325287956E+01  -9.0919227955E+02   9.1131777461E+02   1.0000000000E+01  2.407E-11   1.
3000001    1    4    0    0    0   1.4847337946E+01   5.8442435672E+00  -2.5055220894E+02   2.5106176138E+02   1.0000000000E+00     0.000  -1.
3000022   2   4   0   0   0   4.3086829747E+01   1.4481044389E+01   -4.9741485011E+02   4.9948750851E+02   2.5000000000E-01   3.372677E+00   0.
3000001    1    5    0    0    0  -4.7303766903E+01  -1.2632059132E+01  -7.3814932315E+02   7.3977201796E+02   1.0000000000E+00     0.000   1.
3000022   2   5   0   0   0   -1.0630400790E+01   -7.6932288240E+00   -1.7104295640E+02   1.7154575665E+02   2.5000000000E-01   2.286904E+00   0.
13    1    7    0    0    0   1.8138338367E+01   6.1039118613E+00  -2.0871763792E+02   2.0959322619E+02   1.0500000000E-01     0.000  -1.
-13    1    7    0    0    0   2.4948491381E+01   8.3771325273E+00  -2.8869721219E+02   2.8989428232E+02   1.0500000000E-01     0.000   1.
13    1    9    0    0    0  -6.5198920352E+00  -4.6887824473E+00  -1.0541510690E+02   1.0572061984E+02   1.0500000000E-01     0.000  -1.
-13    1    9    0    0    0  -4.1105087547E+00  -3.0044463767E+00  -6.5627849504E+01   6.5825136808E+01   1.0500000000E-01     0.000   1.
</event>
<event>
 13   1  9.2978750E-05  1.2500000E+02  7.5467720E-03  1.2380620E-01
   21   -1    0    0  502  501   0.0000000000E+00   0.0000000000E+00   3.1931951793E+02   3.1931951793E+02   0.0000000000E+00     0.000   1.
   21   -1    0    0  501  502   0.0000000000E+00   0.0000000000E+00  -1.2233044899E+01   1.2233044899E+01   0.0000000000E+00     0.000   1.
   25    2    1    2    0    0   0.0000000000E+00   0.0000000000E+00   3.0708647303E+02   3.3155256282E+02   1.2500000000E+02  3.464E-08  -1.
3000002    2    3    0    0    0  -1.4731605261E+01  -3.4061944966E+01   2.2818625149E+01   4.4698164863E+01   1.0000000000E+01  1.564E-10   1.
3000002    2    3    0    0    0   1.4731605261E+01   3.4061944966E+01   2.8426784788E+02   2.8685439796E+02   1.0000000000E+01  9.704E-11   1.
3000001    1    4    0    0    0  -9.1204909784E+00  -1.4709890984E+01   5.6763083422E+00   1.8242388134E+01   1.0000000000E+00     0.000   1.
3000022   2   4   0   0   0   -5.6111142828E+00   -1.9352053982E+01   1.7142316807E+01   2.6455776729E+01   2.5000000000E-01   3.018514E+00   0.
3000001    1    5    0    0    0   1.4772601688E+01   2.4416824486E+01   1.9796297013E+02   2.0001187120E+02   1.0000000000E+00     0.000   1.
3000022   2   5   0   0   0   -4.0996426651E-02   9.6451204797E+00   8.6304877751E+01   8.6842526757E+01   2.5000000000E-01   4.831746E-01   0.
13    1    7    0    0    0  -1.8384510884E+00  -6.2935488923E+00   5.5126541331E+00   8.5667403751E+00   1.0500000000E-01     0.000  -1.
-13    1    7    0    0    0  -3.7726631944E+00  -1.3058505090E+01   1.1629662674E+01   1.7889036354E+01   1.0500000000E-01     0.000   1.
13    1    9    0    0    0  -5.6727232101E-03   6.9597558339E+00   6.1983226175E+01   6.2372827301E+01   1.0500000000E-01     0.000  -1.
-13    1    9    0    0    0  -3.5323703441E-02   2.6853646458E+00   2.4321651576E+01   2.4469699456E+01   1.0500000000E-01     0.000   1.
</event>
<event>
 13   1  9.2978750E-05  1.2500000E+02  7.5467720E-03  1.2380620E-01
   21   -1    0    0  502  501   0.0000000000E+00   0.0000000000E+00   3.3932008215E+01   3.3932008215E+01   0.0000000000E+00     0.000  -1.
   21   -1    0    0  501  502   0.0000000000E+00   0.0000000000E+00  -1.1511991790E+02   1.1511991790E+02   0.0000000000E+00     0.000  -1.
   25    2    1    2    0    0   0.0000000000E+00   0.0000000000E+00  -8.1187909690E+01   1.4905192612E+02   1.2500000000E+02  2.735E-08  -1.
3000002    2    3    0    0    0  -5.9300851628E+01  -1.0174504276E+01  -2.4325525082E+01   6.5664622983E+01   1.0000000000E+01  2.665E-10  -1.
3000002    2    3    0    0    0   5.9300851628E+01   1.0174504276E+01  -5.6862384608E+01   8.3387303137E+01   1.0000000000E+01  3.250E-10  -1.
3000001    1    4    0    0    0  -3.2534354467E+01  -2.3575599308E+00  -9.0380846457E+00   3.3863391493E+01   1.0000000000E+00     0.000  -1.
3000022   2   4   0   0   0   -2.6766497161E+01   -7.8169443457E+00   -1.5287440436E+01   3.1801231490E+01   2.5000000000E-01   2.452571E+00   0.
3000001    1    5    0    0    0   9.7116136952E+00  -1.8401549825E+00  -1.0305724458E+01   1.4314662676E+01   1.0000000000E+00     0.000  -1.
3000022   2   5   0   0   0   4.9589237933E+01   1.2014659259E+01   -4.6556660150E+01   6.9072640461E+01   2.5000000000E-01   6.153698E+00   0.
13    1    7    0    0    0  -6.4033379807E+00  -1.8573842085E+00  -3.6395182722E+00   7.5966921517E+00   1.0500000000E-01     0.000   1.
-13    1    7    0    0    0  -2.0363159181E+01  -5.9595601372E+00  -1.1647922164E+01   2.4204539338E+01   1.0500000000E-01     0.000  -1.
13    1    9    0    0    0   1.6401106364E+01   4.0102271753E+00  -1.5352780722E+01   2.2820979664E+01   1.0500000000E-01     0.000   1.
-13    1    9    0    0    0   3.3188131569E+01   8.0044320837E+00  -3.1203879429E+01   4.6251660796E+01   1.0500000000E-01     0.000  -1.
</event>
<event>
 13   1  9.2978750E-05  1.2500000E+02  7.5467720E-03  1.2380620E-01
   21   -1    0    0  502  501   0.0000000000E+00   0.0000000000E+00   1.0781269123E+02   1.0781269123E+02   0.0000000000E+00     0.000  -1.
   21   -1    0    0  501  502   0.0000000000E+00   0.0000000000E+00  -3.6231819793E+01   3.6231819793E+01   0.0000000000E+00     0.000  -1.
   25    2    1    2    0    0   0.0000000000E+00   0.0000000000E+00   7.1580871436E+01   1.4404451102E+02   1.2500000000E+02  6.644E-09  -1.
3000002    2    3    0    0    0  -2.7929848954E+01  -5.4396850651E+01   2.6347007542E+01   6.7329478163E+01   1.0000000000E+01  2.493E-10  -1.
3000002    2    3    0    0    0   2.7929848954E+01   5.4396850651E+01   4.5233863894E+01   7.6715032857E+01   1.0000000000E+01  2.719E-12  -1.
3000001    1    4    0    0    0  -2.1074101380E+01  -4.2184925806E+01   1.5616250698E+01   4.9684534819E+01   1.0000000000E+00     0.000  -1.
3000022   2   4   0   0   0   -6.8557475735E+00   -1.2211924845E+01   1.0730756843E+01   1.7644943345E+01   2.5000000000E-01   3.611424E+00   0.
3000001    1    5    0    0    0   1.1045181625E+01   2.2083958228E+01   2.4374305431E+01   3.4710286853E+01   1.0000000000E+00     0.000   1.
3000022   2   5   0   0   0   1.6884667328E+01   3.2312892424E+01   2.0859558463E+01   4.2004746004E+01   2.5000000000E-01   4.527241E-01   0.
13    1    7    0    0    0  -3.0821950847E+00  -5.4287828219E+00   4.8581059545E+00   7.9109941179E+00   1.0500000000E-01     0.000   1.
-13    1    7    0    0    0  -3.7735524887E+00  -6.7831420231E+00   5.8726508887E+00   9.7339492268E+00   1.0500000000E-01     0.000  -1.
13    1    9    0    0    0   6.2971582916E+00   1.2181295172E+01   7.8426460299E+00   1.5797350295E+01   1.0500000000E-01     0.000   1.
-13    1    9    0    0    0   1.0587509037E+01   2.0131597252E+01   1.3016912433E+01   2.6207395709E+01   1.0500000000E-01     0.000  -1.
</event>
<event>
 13   1  9.2978750E-05  1.2500000E+02  7.5467720E-03  1.2380620E-01
   21   -1    0    0  502  501   0.0000000000E+00   0.0000000000E+00   3.3415816099E+01   3.3415816099E+01   0.0000000000E+00     0.000   1.
   21   -1    0    0  501  502   0.0000000000E+00   0.0000000000E+00  -1.1689823730E+02   1.1689823730E+02   0.0000000000E+00     0.000   1.
   25    2    1    2    0    0   0.0000000000E+00   0.0000000000E+00  -8.3482421202E+01   1.5031405340E+02   1.2500000000E+02  8.277E-09  -1.
3000002    2    3    0    0    0   1.7731592627E+01  -5.8599044024E+01  -3.2583728122E+01   7.0071083023E+01   1.0000000000E+01  1.739E-10  -1.
3000002    2    3    0    0    0  -1.7731592627E+01   5.8599044024E+01  -5.0898693080E+01   8.0242970377E+01   1.0000000000E+01  1.570E-10  -1.
3000001    1    4    0    0    0   1.6549690849E+01  -5.6185632966E+01  -3.3154877063E+01   6.7312431928E+01   1.0000000000E+00     0.000  -1.
3000022   2   4   0   0   0   1.1819017780E+00   -2.4134110580E+00   5.7114894130E-01   2.7586510944E+00   2.5000000000E-01   8.841263E+00   0.
3000001    1    5    0    0    0  -1.6233206546E+01   4.7480510502E+01  -3.6859000510E+01   6.2269589615E+01   1.0000000000E+00     0.000  -1.
3000022   2   5   0   0   0   -1.4983860818E+00   1.1118533522E+01   -1.4039692570E+01   1.7973380762E+01   2.5000000000E-01   8.640447E+00   0.
13    1    7    0    0    0   4.9940270340E-01  -9.0442495323E-01   2.5518701911E-01   1.0693610106E+00   1.0500000000E-01     0.000   1.
-13    1    7    0    0    0   6.8249907458E-01  -1.5089861047E+00   3.1596192219E-01   1.6892900838E+00   1.0500000000E-01     0.000  -1.
13    1    9    0    0    0  -7.2267507241E-01   5.8433935139E+00  -7.3341564676E+00   9.4057632923E+00   1.0500000000E-01     0.000  -1.
-13    1    9    0    0    0  -7.7571100935E-01   5.2751400085E+00  -6.7055361026E+00   8.5676174694E+00   1.0500000000E-01     0.000   1.
</event>
<event>
 13   1  9.2978750E-05  1.2500000E+02  7.5467720E-03  1.2380620E-01
   21   -1    0    0  502  501   0.0000000000E+00   0.0000000000E+00   2.6242217647E+02   2.6242217647E+02   0.0000000000E+00     0.000  -1.
   21   -1    0    0  501  502   0.0000000000E+00   0.0000000000E+00  -1.4885365454E+01   1.4885365454E+01   0.0000000000E+00     0.000  -1.
   25    2    1    2    0    0   0.0000000000E+00   0.0000000000E+00   2.4753681102E+02   2.7730754193E+02   1.2500000000E+02  6.858E-09  -1.
3000002    2    3    0    0    0   5.0727772277E+01   2.5524832935E+01   1.7726164528E+02   1.8640417072E+02   1.0000000000E+01  1.625E-10  -1.
3000002    2    3    0    0    0  -5.0727772277E+01  -2.5524832935E+01   7.0275165741E+01   9.0903371205E+01   1.0000000000E+01  1.971E-10  -1.
3000001    1    4    0    0    0   3.6425803975E+01   1.8479883069E+01   1.4080622955E+02   1.4661425426E+02   1.0000000000E+00     0.000  -1.
3000022   2   4   0   0   0   1.4301968303E+01   7.0449498660E+00   3.6455415729E+01   3.9789916460E+01   2.5000000000E-01   4.058014E-01   0.
3000001    1    5    0    0    0  -3.1953535224E+01  -1.5081205998E+01   5.0915815180E+01   6.1982993015E+01   1.0000000000E+00     0.000  -1.
3000022   2   5   0   0   0   -1.8774237053E+01   -1.0443626937E+01   1.9359350561E+01   2.8920378190E+01   2.5000000000E-01   6.974703E+00   0.
13    1    7    0    0    0   1.0041203293E+01   4.9145906372E+00   2.5649993161E+01   2.7980567164E+01   1.0500000000E-01     0.000  -1.
-13    1    7    0    0    0   4.2607650100E+00   2.1303592288E+00   1.0805422568E+01   1.1809349296E+01   1.0500000000E-01     0.000   1.
13    1    9    0    0    0  -7.3393557474E+00  -4.1078621352E+00   7.5011365158E+00   1.1270259453E+01   1.0500000000E-01     0.000   1.
-13    1    9    0    0    0  -1.1434881306E+01  -6.3357648014E+00   1.1858214046E+01   1.7650118737E+01   1.0500000000E-01     0.000  -1.
</event>
<event>
 13   1  9.2978750E-05  1.2500000E+02  7.5467720E-03  1.2380620E-01
   21   -1    0    0  502  501   0.0000000000E+00   0.0000000000E+00   2.3214570235E+01   2.3214570235E+01   0.0000000000E+00     0.000  -1.
   21   -1    0    0  501  502   0.0000000000E+00   0.0000000000E+00  -1.6826716844E+02   1.6826716844E+02   0.0000000000E+00     0.000  -1.
   25    2    1    2    0    0   0.0000000000E+00   0.0000000000E+00  -1.4505259820E+02   1.9148173867E+02   1.2500000000E+02  2.198E-08  -1.
3000002    2    3    0    0    0  -3.3519593713E+01  -4.4151366433E+01  -3.1043206510E+01   6.4316304239E+01   1.0000000000E+01  2.021E-11   1.
3000002    2    3    0    0    0   3.3519593713E+01   4.4151366433E+01  -1.1400939169E+02   1.2716543443E+02   1.0000000000E+01  1.409E-10   1.
3000001    1    4    0    0    0  -3.0689477535E+01  -4.0583722707E+01  -2.4874454063E+01   5.6644691235E+01   1.0000000000E+00     0.000  -1.
3000022   2   4   0   0   0   -2.8301161776E+00   -3.5676437253E+00   -6.1687524474E+00   7.6716130042E+00   2.5000000000E-01   3.364184E+00   0.
3000001    1    5    0    0    0   2.5072153304E+01   3.8197361699E+01  -9.7615514343E+01   1.0778422868E+02   1.0000000000E+00     0.000   1.
3000022   2   5   0   0   0   8.4474404093E+00   5.9540047336E+00   -1.6393877346E+01   1.9381205749E+01   2.5000000000E-01   3.770631E+00   0.
13    1    7    0    0    0  -1.9723988671E+00  -2.5561430543E+00  -4.3672114329E+00   5.4321068937E+00   1.0500000000E-01     0.000  -1.
-13    1    7    0    0    0  -8.5771731044E-01  -1.0115006710E+00  -1.8015410145E+00   2.2395061105E+00   1.0500000000E-01     0.000   1.
13    1    9    0    0    0   4.8767369814E+00   3.3605337547E+00  -9.3592042794E+00   1.1076167227E+01   1.0500000000E-01     0.000   1.
-13    1    9    0    0    0   3.5707034279E+00   2.5934709789E+00  -7.0346730671E+00   8.3050385218E+00   1.0500000000E-01     0.000  -1.
</event>
<event>
 13   1  9.2978750E-05  1.2500000E+02  7.5467720E-03  1.2380620E-01
   21   -1    0    0  502  501   0.0000000000E+00   0.0000000000E+00   7.8028653974E+00   7.8028653974E+00   0.0000000000E+00     0.000  -1.
   21   -1    0    0  501  502   0.0000000000E+00   0.0000000000E+00  -5.0061737594E+02   5.0061737594E+02   0.0000000000E+00     0.000  -1.
   25    2    1    2    0    0   0.0000000000E+00   0.0000000000E+00  -4.9281451054E+02   5.0842024133E+02   1.2500000000E+02  7.455E-09  -1.
3000002    2    3    0    0    0   5.0861001247E-01  -1.1505298240E+01  -4.9293164991E+02   4.9316755982E+02   1.0000000000E+01  2.657E-11  -1.
3000002    2    3    0    0    0  -5.0861001247E-01   1.1505298240E+01   1.1713937027E-01   1.5252681514E+01   1.0000000000E+01  1.441E-09  -1.
3000001    1    4    0    0    0  -3.9386675955E+00  -2.9145903760E+00  -2.3756774244E+02   2.3762036990E+02   1.0000000000E+00     0.000  -1.
3000022   2   4   0   0   0   4.4472776080E+00   -8.5907078638E+00   -2.5536390747E+02   2.5554718992E+02   2.5000000000E-01   1.200431E+01   0.
3000001    1    5    0    0    0  -1.2306053288E+00   1.3229876177E+01   4.7389422915E-01   1.3332988745E+01   1.0000000000E+00     0.000  -1.
3000022   2   5   0   0   0   7.2199531631E-01   -1.7245779371E+00   -3.5675485888E-01   1.9196927690E+00   2.5000000000E-01   1.217554E+01   0.
13    1    7    0    0    0   2.3402935254E+00  -4.3896369318E+00  -1.3212257636E+02   1.3221623234E+02   1.0500000000E-01     0.000  -1.
-13    1    7    0    0    0   2.1069840826E+00  -4.2010709320E+00  -1.2324133111E+02   1.2333095758E+02   1.0500000000E-01     0.000   1.
13    1    9    0    0    0   3.9726000831E-01  -1.0823050300E+00  -2.5309870047E-01   1.1850247442E+00   1.0500000000E-01     0.000   1.
-13    1    9    0    0    0   3.2473530800E-01  -6.4227290709E-01  -1.0365615840E-01   7.3466802477E-01   1.0500000000E-01     0.000  -1.
</event>
<event>
 13   1  9.2978750E-05  1.2500000E+02  7.5467720E-03  1.2380620E-01
   21   -1    0    0  502  501   0.0000000000E+00   0.0000000000E+00   5.7319079983E+01   5.7319079983E+01   0.0000000000E+00     0.000   1.
   21   -1    0    0  501  502   0.0000000000E+00   0.0000000000E+00  -6.8149209672E+01   6.8149209672E+01   0.0000000000E+00     0.000   1.
   25    2    1    2    0    0   0.0000000000E+00   0.0000000000E+00  -1.0830129689E+01   1.2546828966E+02   1.2500000000E+02  3.012E-08  -1.
3000002    2    3    0    0    0  -1.6621346752E+01   5.8134234087E+01   6.8943055693E+00   6.1671628729E+01   1.0000000000E+01  3.996E-10   1.
3000002    2    3    0    0    0   1.6621346752E+01  -5.8134234087E+01  -1.7724435258E+01   6.3796660931E+01   1.0000000000E+01  1.700E-09   1.
3000001    1    4    0    0    0  -6.6271391907E+00   3.9400934110E+01   6.0374762255E+00   4.0420337725E+01   1.0000000000E+00     0.000   1.
3000022   2   4   0   0   0   -9.9942075612E+00   1.8733299977E+01   8.5682934377E-01   2.1251291004E+01   2.5000000000E-01   2.452002E+00   0.
3000001    1    5    0    0    0   1.3671557672E+01  -4.4365031334E+01  -1.7753690230E+01   4.9712785188E+01   1.0000000000E+00     0.000   1.
3000022   2   5   0   0   0   2.9497890802E+00   -1.3769202754E+01   2.9254971748E-02   1.4083875743E+01   2.5000000000E-01   2.031989E+00   0.
13    1    7    0    0    0  -3.1136903564E+00   5.8648985588E+00   3.1522341618E-01   6.6484955850E+00   1.0500000000E-01     0.000  -1.
-13    1    7    0    0    0  -6.8805172047E+00   1.2868401418E+01   5.4160592759E-01   1.4602795419E+01   1.0500000000E-01     0.000   1.
13    1    9    0    0    0   1.5300095639E+00  -7.4309391653E+00   4.4733867263E-02   7.5876750236E+00   1.0500000000E-01     0.000   1.
-13    1    9    0    0    0   1.4197795162E+00  -6.3382635883E+00  -1.5478895514E-02   6.4962007193E+00   1.0500000000E-01     0.000  -1.
</event>
<event>
 13   1  9.2978750E-05  1.2500000E+02  7.5467720E-03  1.2380620E-01
   21   -1    0    0  502  501   0.0000000000E+00   0.0000000000E+00   5.5213736446E+01   5.5213736446E+01   0.0000000000E+00     0.000  -1.
   21   -1    0    0  501  502   0.0000000000E+00   0.0000000000E+00  -7.0747793057E+01   7.0747793057E+01   0.0000000000E+00     0.000  -1.
   25    2    1    2    0    0   0.0000000000E+00   0.0000000000E+00  -1.5534056610E+01   1.2596152950E+02   1.2500000000E+02  2.886E-08  -1.
3000002    2    3    0    0    0  -4.2066624424E+01   3.9031324414E+01  -3.0595312859E+01   6.5796035936E+01   1.0000000000E+01  1.500E-10   1.
3000002    2    3    0    0    0   4.2066624424E+01  -3.9031324414E+01   1.5061256249E+01   6.0165493564E+01   1.0000000000E+01  1.953E-10   1.
3000001    1    4    0    0    0  -1.5916507326E+01   8.5785234135E+00  -9.3780314749E+00   2.0392982709E+01   1.0000000000E+00     0.000  -1.
3000022   2   4   0   0   0   -2.6150117098E+01   3.0452801000E+01   -2.1217281384E+01   4.5403053227E+01   2.5000000000E-01   1.533143E+00   0.
3000001    1    5    0    0    0   3.3601866181E+01  -2.5136553452E+01   1.1100571133E+01   4.3418364890E+01   1.0000000000E+00     0.000   1.
3000022   2   5   0   0   0   8.4647582434E+00   -1.3894770962E+01   3.9606851163E+00   1.6747128674E+01   2.5000000000E-01   1.928140E+01   0.
13    1    7    0    0    0  -1.9027392804E+01   2.2167550258E+01  -1.5482829649E+01   3.3063136577E+01   1.0500000000E-01     0.000  -1.
-13    1    7    0    0    0  -7.1227242940E+00   8.2852507425E+00  -5.7344517353E+00   1.2339916650E+01   1.0500000000E-01     0.000   1.
13    1    9    0    0    0   4.1057645534E+00  -6.7574953305E+00   1.8557982666E+00   8.1225647376E+00   1.0500000000E-01     0.000  -1.
-13    1    9    0    0    0   4.3589936900E+00  -7.1372756320E+00   2.1048868497E+00   8.6245639360E+00   1.0500000000E-01     0.000   1.
</event>
<event>
 13   1  9.2978750E-05  1.2500000E+02  7.5467720E-03  1.2380620E-01
   21   -1    0    0  502  501   0.0000000000E+00   0.0000000000E+00   5.3194767773E+01   5.3194767773E+01   0.0000000000E+00     0.000  -1.
   21   -1    0    0  501  502   0.0000000000E+00   0.0000000000E+00  -7.3432974023E+01   7.3432974023E+01   0.0000000000E+00     0.000  -1.
   25    2    1    2    0    0   0.0000000000E+00   0.0000000000E+00  -2.0238206250E+01   1.2662774180E+02   1.2500000000E+02  5.045E-08  -1.
3000002    2    3    0    0    0  -8.9573475900E+00  -4.7643144741E+01  -4.8775503586E+01   6.9492107946E+01   1.0000000000E+01  1.906E-11  -1.
3000002    2    3    0    0    0   8.9573475900E+00   4.7643144741E+01   2.8537297336E+01   5.7135633854E+01   1.0000000000E+01  5.810E-11  -1.
3000001    1    4    0    0    0  -3.3052262324E+00  -3.7488845445E+01  -3.4323838079E+01   5.0945695734E+01   1.0000000000E+00     0.000  -1.
3000022   2   4   0   0   0   -5.6521213577E+00   -1.0154299296E+01   -1.4451665507E+01   1.8546412212E+01   2.5000000000E-01   2.837272E+00   0.
3000001    1    5    0    0    0   6.6847931429E+00   1.8051049491E+01   1.5428482559E+01   2.4689368585E+01   1.0000000000E+00     0.000  -1.
3000022   2   5   0   0   0   2.2725544471E+00   2.9592095251E+01   1.3108814777E+01   3.2446265269E+01   2.5000000000E-01   1.417059E+01   0.
13    1    7    0    0    0  -2.3866024874E+00  -4.3842308953E+00  -6.2804374477E+00   8.0232332329E+00   1.0500000000E-01     0.000   1.
-13    1    7    0    0    0  -3.2655188703E+00  -5.7700684005E+00  -8.1712280589E+00   1.0523178979E+01   1.0500000000E-01     0.000  -1.
13    1    9    0    0    0   1.0633014417E+00   1.3316977156E+01   5.8427257370E+00   1.4581528026E+01   1.0500000000E-01     0.000   1.
-13    1    9    0    0    0   1.2092530054E+00   1.6275118095E+01   7.2660890402E+00   1.7864737243E+01   1.0500000000E-01     0.000  -1.
</event>
<event>
 13   1  9.2978750E-05  1.2500000E+02  7.5467720E-03  1.2380620E-01
   21   -1    0    0  502  501   0.0000000000E+00   0.0000000000E+00   1.0320275209E+03   1.0320275209E+03   0.0000000000E+00     0.000   1.
   21   -1    0    0  501  502   0.0000000000E+00   0.0000000000E+00  -3.7850250316E+00   3.7850250316E+00   0.0000000000E+00     0.000   1.
   25    2    1    2    0    0   0.0000000000E+00   0.0000000000E+00   1.0282424959E+03   1.0358125460E+03   1.2500000000E+02  3.351E-09  -1.
3000002    2    3    0    0    0  -2.4913088882E+01  -5.3666807824E+01   6.5894826221E+02   6.6167484502E+02   1.0000000000E+01  1.587E-11   1.
3000002    2    3    0    0    0   2.4913088882E+01   5.3666807824E+01   3.6929423369E+02   3.7413770098E+02   1.0000000000E+01  2.365E-11   1.
3000001    1    4    0    0    0  -1.7819446718E+00  -6.4301664651E+00   1.1214680742E+02   1.1234958292E+02   1.0000000000E+00     0.000   1.
3000022   2   4   0   0   0   -2.3131144210E+01   -4.7236641359E+01   5.4680145479E+02   5.4932526210E+02   2.5000000000E-01   1.390916E+01   0.
3000001    1    5    0    0    0   4.8912640659E-01   3.8902303992E+00   4.0443347997E+01   4.0645264600E+01   1.0000000000E+00     0.000   1.
3000022   2   5   0   0   0   2.4423962475E+01   4.9776577424E+01   3.2885088569E+02   3.3349243638E+02   2.5000000000E-01   1.083621E+01   0.
13    1    7    0    0    0  -7.7849389114E+00  -1.5777000453E+01   1.8298828509E+02   1.8383210416E+02   1.0500000000E-01     0.000   1.
-13    1    7    0    0    0  -1.5346205299E+01  -3.1459640905E+01   3.6381316971E+02   3.6549315794E+02   1.0500000000E-01     0.000  -1.
13    1    9    0    0    0   1.2868852027E+01   2.6376561728E+01   1.7397949510E+02   1.7643754164E+02   1.0500000000E-01     0.000  -1.
-13    1    9    0    0    0   1.1555110448E+01   2.3400015696E+01   1.5487139059E+02   1.5705489474E+02   1.0500000000E-01     0.000   1.
</event>
<event>
 13   1  9.2978750E-05  1.2500000E+02  7.5467720E-03  1.2380620E-01
   21   -1    0    0  502  501   0.0000000000E+00   0.0000000000E+00   3.4334998877E+01   3.4334998877E+01   0.0000000000E+00     0.000   1.
   21   -1    0    0  501  502   0.0000000000E+00   0.0000000000E+00  -1.1376875281E+02   1.1376875281E+02   0.0000000000E+00     0.000   1.
   25    2    1    2    0    0   0.0000000000E+00   0.0000000000E+00  -7.9433753934E+01   1.4810375169E+02   1.2500000000E+02  3.059E-08  -1.
3000002    2    3    0    0    0  -1.5047664646E+00  -4.0800284364E+01   1.5084841054E+01   4.4659600938E+01   1.0000000000E+01  3.702E-10   1.
3000002    2    3    0    0    0   1.5047664646E+00   4.0800284364E+01  -9.4518594988E+01   1.0344415075E+02   1.0000000000E+01  1.569E-09   1.
3000001    1    4    0    0    0  -3.8328770249E+00  -6.2299309918E+00   2.4588105744E+00   7.7813068241E+00   1.0000000000E+00     0.000  -1.
3000022   2   4   0   0   0   2.3281105603E+00   -3.4570353372E+01   1.2626030480E+01   3.6878294114E+01   2.5000000000E-01   2.322336E+00   0.
3000001    1    5    0    0    0   2.6728502116E+00   4.9705787289E+00  -1.9049949649E+01   1.9893500516E+01   1.0000000000E+00     0.000  -1.
3000022   2   5   0   0   0   -1.1680837470E+00   3.5829705635E+01   -7.5468645339E+01   8.3550650236E+01   2.5000000000E-01   2.435179E+00   0.
13    1    7    0    0    0   6.7653963514E-01  -1.0397609061E+01   3.8390771054E+00   1.1104842100E+01   1.0500000000E-01     0.000   1.
-13    1    7    0    0    0   1.6515709251E+00  -2.4172744312E+01   8.7869533742E+00   2.5773452013E+01   1.0500000000E-01     0.000  -1.
13    1    9    0    0    0  -8.0533469256E-01   2.4571200523E+01  -5.1869057556E+01   5.7400371217E+01   1.0500000000E-01     0.000  -1.
-13    1    9    0    0    0  -3.6274905442E-01   1.1258505112E+01  -2.3599587782E+01   2.6150279018E+01   1.0500000000E-01     0.000   1.
</event>
<event>
 13   1  9.2978750E-05  1.2500000E+02  7.5467720E-03  1.2380620E-01
   21   -1    0    0  502  501   0.0000000000E+00   0.0000000000E+00   7.4529966640E+01   7.4529966640E+01   0.0000000000E+00     0.000  -1.
   21   -1    0    0  501  502   0.0000000000E+00   0.0000000000E+00  -5.2411803951E+01   5.2411803951E+01   0.0000000000E+00     0.000  -1.
   25    2    1    2    0    0   0.0000000000E+00   0.0000000000E+00   2.2118162690E+01   1.2694177059E+02   1.2500000000E+02  3.412E-09  -1.
3000002    2    3    0    0    0   2.8355876541E+01  -1.9752065858E+00   6.6666349688E+01   7.3159820641E+01   1.0000000000E+01  2.321E-10  -1.
3000002    2    3    0    0    0  -2.8355876541E+01   1.9752065858E+00  -4.4548186998E+01   5.3781949949E+01   1.0000000000E+01  5.680E-11  -1.
3000001    1    4    0    0    0   1.9564858498E+00  -2.9729564542E+00   8.9957235261E+00   9.7257055640E+00   1.0000000000E+00     0.000  -1.
3000022   2   4   0   0   0   2.6399390692E+01   9.9774986839E-01   5.7670626162E+01   6.3434115077E+01   2.5000000000E-01   7.330812E+00   0.
3000001    1    5    0    0    0  -5.8403092116E+00  -1.1569438697E+00  -3.8369138034E+00   7.1532956278E+00   1.0000000000E+00     0.000   1.
3000022   2   5   0   0   0   -2.2515567330E+01   3.1321504555E+00   -4.0711273195E+01   4.6628654321E+01   2.5000000000E-01   2.692588E+00   0.
13    1    7    0    0    0   1.8376745352E+01   6.8273170052E-01   4.0033899899E+01   4.4055590547E+01   1.0500000000E-01     0.000   1.
-13    1    7    0    0    0   8.0226453398E+00   3.1501816787E-01   1.7636726263E+01   1.9378524530E+01   1.0500000000E-01     0.000  -1.
13    1    9    0    0    0  -1.6157602026E+01   2.2628376954E+00  -2.9140757023E+01   3.3397354424E+01   1.0500000000E-01     0.000   1.
-13    1    9    0    0    0  -6.3579653042E+00   8.6931276008E-01  -1.1570516172E+01   1.3231299897E+01   1.0500000000E-01     0.000  -1.
</event>
<event>
 13   1  9.2978750E-05  1.2500000E+02  7.5467720E-03  1.2380620E-01
   21   -1    0    0  502  501   0.0000000000E+00   0.0000000000E+00   3.3169681167E+02   3.3169681167E+02   0.0000000000E+00     0.000  -1.
   21   -1    0    0  501  502   0.0000000000E+00   0.0000000000E+00  -1.1776567825E+01   1.1776567825E+01   0.0000000000E+00     0.000  -1.
   25    2    1    2    0    0   0.0000000000E+00   0.0000000000E+00   3.1992024385E+02   3.4347337950E+02   1.2500000000E+02  7.993E-08  -1.
3000002    2    3    0    0    0   4.0243446873E+01   2.2512635556E+01   2.7258239724E+02   2.7663607332E+02   1.0000000000E+01  4.238E-10  -1.
3000002    2    3    0    0    0  -4.0243446873E+01  -2.2512635556E+01   4.7337846608E+01   6.6837306180E+01   1.0000000000E+01  2.273E-09  -1.
3000001    1    4    0    0    0   8.4390258537E+00   1.1881275657E+00   6.3351086704E+01   6.3929562731E+01   1.0000000000E+00     0.000   1.
3000022   2   4   0   0   0   3.1804421019E+01   2.1324507990E+01   2.0923131054E+02   2.1270651059E+02   2.5000000000E-01   3.057191E+00   0.
3000001    1    5    0    0    0  -6.0885970491E+00   1.8476708702E-01   6.3860372602E+00   8.8818142737E+00   1.0000000000E+00     0.000   1.
3000022   2   5   0   0   0   -3.4154849824E+01   -2.2697402643E+01   4.0951809348E+01   5.7955491906E+01   2.5000000000E-01   5.785223E+00   0.
13    1    7    0    0    0   7.8893971689E+00   5.2603738941E+00   5.1787417842E+01   5.2648473795E+01   1.0500000000E-01     0.000  -1.
-13    1    7    0    0    0   2.3915023850E+01   1.6064134096E+01   1.5744389270E+02   1.6005803679E+02   1.0500000000E-01     0.000   1.
13    1    9    0    0    0  -2.4641650829E+01  -1.6422197825E+01   2.9568924192E+01   4.1847722039E+01   1.0500000000E-01     0.000   1.
-13    1    9    0    0    0  -9.5131989952E+00  -6.2752048177E+00   1.1382885156E+01   1.6107769867E+01   1.0500000000E-01     0.000  -1.
</event>
<event>
 13   1  9.2978750E-05  1.2500000E+02  7.5467720E-03  1.2380620E-01
   21   -1    0    0  502  501   0.0000000000E+00   0.0000000000E+00   1.6482209638E+02   1.6482209638E+02   0.0000000000E+00     0.000  -1.
   21   -1    0    0  501  502   0.0000000000E+00   0.0000000000E+00  -2.3699795633E+01   2.3699795633E+01   0.0000000000E+00     0.000  -1.
   25    2    1    2    0    0   0.0000000000E+00   0.0000000000E+00   1.4112230075E+02   1.8852189201E+02   1.2500000000E+02  1.470E-07  -1.
3000002    2    3    0    0    0   3.4278994692E+01   1.5777361256E+01  -3.0507041626E+00   3.9157137296E+01   1.0000000000E+01  1.245E-09   1.
3000002    2    3    0    0    0  -3.4278994692E+01  -1.5777361256E+01   1.4417300491E+02   1.4936475471E+02   1.0000000000E+01  4.338E-10   1.
3000001    1    4    0    0    0   1.0832868947E+01   7.4328350654E+00   3.0676759944E+00   1.3528071657E+01   1.0000000000E+00     0.000  -1.
3000022   2   4   0   0   0   2.3446125745E+01   8.3445261906E+00   -6.1183801570E+00   2.5629065639E+01   2.5000000000E-01   5.727372E+00   0.
3000001    1    5    0    0    0  -2.2910057142E+01  -1.0686373923E+01   7.7113270449E+01   8.1157413619E+01   1.0000000000E+00     0.000   1.
3000022   2   5   0   0   0   -1.1368937550E+01   -5.0909873331E+00   6.7059734463E+01   6.8207341096E+01   2.5000000000E-01   1.075221E+00   0.
13    1    7    0    0    0   1.1869633135E+01   4.1524664450E+00  -3.0900415781E+00   1.2949538613E+01   1.0500000000E-01     0.000  -1.
-13    1    7    0    0    0   1.1576492610E+01   4.1920597456E+00  -3.0283385789E+00   1.2679527026E+01   1.0500000000E-01     0.000   1.
13    1    9    0    0    0  -3.9081716645E+00  -1.8053481933E+00   2.3048037733E+01   2.3446879456E+01   1.0500000000E-01     0.000  -1.
-13    1    9    0    0    0  -7.4607658856E+00  -3.2856391397E+00   4.4011696730E+01   4.4760461640E+01   1.0500000000E-01     0.000   1.
</event>
<event>
 13   1  9.2978750E-05  1.2500000E+02  7.5467720E-03  1.2380620E-01
   21   -1    0    0  502  501   0.0000000000E+00   0.0000000000E+00   1.8049544112E+02   1.8049544112E+02   0.0000000000E+00     0.000  -1.
   21   -1    0    0  501  502   0.0000000000E+00   0.0000000000E+00  -2.1641820845E+01   2.1641820845E+01   0.0000000000E+00     0.000  -1.
   25    2    1    2    0    0   0.0000000000E+00   0.0000000000E+00   1.5885362027E+02   2.0213726196E+02   1.2500000000E+02  7.967E-08  -1.
3000002    2    3    0    0    0  -7.0370922037E+00  -2.0487971217E+01  -1.3987340848E+01   2.7657247427E+01   1.0000000000E+01  1.154E-10   1.
3000002    2    3    0    0    0   7.0370922037E+00   2.0487971217E+01   1.7284096112E+02   1.7448001453E+02   1.0000000000E+01  7.375E-10   1.
3000001    1    4    0    0    0  -4.2651849346E+00  -1.9601674536E+01  -9.2988951989E+00   2.2133388784E+01   1.0000000000E+00     0.000   1.
3000022   2   4   0   0   0   -2.7719072691E+00   -8.8629668141E-01   -4.6884456486E+00   5.5238586437E+00   2.5000000000E-01   6.701250E+00   0.
3000001    1    5    0    0    0  -9.8662960294E-01   1.1598933885E+01   9.6593681938E+01   9.7297729139E+01   1.0000000000E+00     0.000   1.
3000022   2   5   0   0   0   8.0237218067E+00   8.8890373317E+00   7.6247279179E+01   7.7182285393E+01   2.5000000000E-01   3.308928E+00   0.
13    1    7    0    0    0  -1.7227308551E+00  -4.8943566080E-01  -2.8439555018E+00   3.3625075109E+00   1.0500000000E-01     0.000  -1.
-13    1    7    0    0    0  -1.0491764140E+00  -3.9686102061E-01  -1.8444901468E+00   2.1613511328E+00   1.0500000000E-01     0.000   1.
13    1    9    0    0    0   3.1637875846E+00   3.4317082095E+00   2.9965626941E+01   3.0327149488E+01   1.0500000000E-01     0.000   1.
-13    1    9    0    0    0   4.8599342221E+00   5.4573291222E+00   4.6281652238E+01   4.6855135905E+01   1.0500000000E-01     0.000  -1.
</event>
<event>
 13   1  9.2978750E-05  1.2500000E+02  7.5467720E-03  1.2380620E-01
   21   -1    0    0  502  501   0.0000000000E+00   0.0000000000E+00   1.1446781948E+02   1.1446781948E+02   0.0000000000E+00     0.000  -1.
   21   -1    0    0  501  502   0.0000000000E+00   0.0000000000E+00  -3.4125311532E+01   3.4125311532E+01   0.0000000000E+00     0.000  -1.
   25    2    1    2    0    0   0.0000000000E+00   0.0000000000E+00   8.0342507944E+01   1.4859313101E+02   1.2500000000E+02  3.837E-08  -1.
3000002    2    3    0    0    0   8.8490031797E+00   5.5734094813E+01   6.9810265944E+01   9.0322020643E+01   1.0000000000E+01  8.631E-11  -1.
3000002    2    3    0    0    0  -8.8490031797E+00  -5.5734094813E+01   1.0532242000E+01   5.8271110367E+01   1.0000000000E+01  2.150E-10  -1.
3000001    1    4    0    0    0   5.2193591598E+00   1.5601619855E+01   1.4949088982E+01   2.2251460930E+01   1.0000000000E+00     0.000  -1.
3000022   2   4   0   0   0   3.6296440199E+00   4.0132474958E+01   5.4861176962E+01   6.8070559713E+01   2.5000000000E-01   3.274477E+00   0.
3000001    1    5    0    0    0   5.7549332340E-01  -7.9411517137E-01  -4.2015766271E-01   1.4623077420E+00   1.0000000000E+00     0.000   1.
3000022   2   5   0   0   0   -9.4244965031E+00   -5.4939979641E+01   1.0952399663E+01   5.6808802625E+01   2.5000000000E-01   1.377482E+01   0.
13    1    7    0    0    0   1.8621724541E+00   2.0570859443E+01   2.8235000107E+01   3.4983627607E+01   1.0500000000E-01     0.000  -1.
-13    1    7    0    0    0   1.7674715658E+00   1.9561615515E+01   2.6626176855E+01   3.3086932106E+01   1.0500000000E-01     0.000   1.
13    1    9    0    0    0  -4.2385239332E+00  -2.4667234931E+01   4.9852268714E+00   2.5520601016E+01   1.0500000000E-01     0.000   1.
-13    1    9    0    0    0  -5.1859725698E+00  -3.0272744711E+01   5.9671727918E+00   3.1288201609E+01   1.0500000000E-01     0.000  -1.
</event>
<event>
 13   1  9.2978750E-05  1.2500000E+02  7.5467720E-03  1.2380620E-01
   21   -1    0    0  502  501   0.0000000000E+00   0.0000000000E+00   1.3321686878E+01   1.3321686878E+01   0.0000000000E+00     0.000   1.
   21   -1    0    0  501  502   0.0000000000E+00   0.0000000000E+00  -2.9322487729E+02   2.9322487729E+02   0.0000000000E+00     0.000   1.
   25    2    1    2    0    0   0.0000000000E+00   0.0000000000E+00  -2.7990319041E+02   3.0654656417E+02   1.2500000000E+02  5.078E-08  -1.
3000002    2    3    0    0    0   5.7166492436E+01   1.0612813678E+01  -8.9358352081E+01   1.0707733074E+02   1.0000000000E+01  4.813E-10   1.
3000002    2    3    0    0    0  -5.7166492436E+01  -1.0612813678E+01  -1.9054483833E+02   1.9946923343E+02   1.0000000000E+01  2.730E-10   1.
3000001    1    4    0    0    0   4.4165687212E+01   6.0872173332E+00  -7.4449077771E+01   8.6783220283E+01   1.0000000000E+00     0.000  -1.
3000022   2   4   0   0   0   1.3000805224E+01   4.5255963449E+00   -1.4909274310E+01   2.0294110456E+01   2.5000000000E-01   4.530499E+00   0.
3000001    1    5    0    0    0  -6.9213113914E+00  -3.1962656314E+00  -1.7277814693E+01   1.8911465991E+01   1.0000000000E+00     0.000  -1.
3000022   2   5   0   0   0   -5.0245181045E+01   -7.4165480467E+00   -1.7326702364E+02   1.8055776744E+02   2.5000000000E-01   2.080089E+00   0.
13    1    7    0    0    0   6.5746342528E+00   2.3516870679E+00  -7.6099694522E+00   1.0328548189E+01   1.0500000000E-01     0.000  -1.
-13    1    7    0    0    0   6.4261709714E+00   2.1739092770E+00  -7.2993048578E+00   9.9655622674E+00   1.0500000000E-01     0.000   1.
13    1    9    0    0    0  -3.0203589350E+01  -4.5093933762E+00  -1.0404697882E+02   1.0843604689E+02   1.0500000000E-01     0.000  -1.
-13    1    9    0    0    0  -2.0041591695E+01  -2.9071546705E+00  -6.9220044819E+01   7.2121720554E+01   1.0500000000E-01     0.000   1.
</event>
<event>
 13   1  9.2978750E-05  1.2500000E+02  7.5467720E-03  1.2380620E-01
   21   -1    0    0  502  501   0.0000000000E+00   0.0000000000E+00   3.5296856104E+01   3.5296856104E+01   0.0000000000E+00     0.000   1.
   21   -1    0    0  501  502   0.0000000000E+00   0.0000000000E+00  -1.1066849661E+02   1.1066849661E+02   0.0000000000E+00     0.000   1.
   25    2    1    2    0    0   0.0000000000E+00   0.0000000000E+00  -7.5371640504E+01   1.4596535271E+02   1.2500000000E+02  6.209E-09  -1.
3000002    2    3    0    0    0  -5.0267998806E+01  -3.1885679427E+01  -5.6611640590E+01   8.2755338842E+01   1.0000000000E+01  6.906E-10   1.
3000002    2    3    0    0    0   5.0267998806E+01   3.1885679427E+01  -1.8759999914E+01   6.3210013868E+01   1.0000000000E+01  2.209E-10   1.
3000001    1    4    0    0    0  -1.1544087850E+01  -1.2155298731E+01  -1.8034063950E+01   2.4642335808E+01   1.0000000000E+00     0.000   1.
3000022   2   4   0   0   0   -3.8723910956E+01   -1.9730380696E+01   -3.8577576640E+01   5.8113003034E+01   2.5000000000E-01   1.087790E+00   0.
3000001    1    5    0    0    0   4.8756296788E+01   3.2569015428E+01  -1.7836049481E+01   6.1294713504E+01   1.0000000000E+00     0.000   1.
3000022   2   5   0   0   0   1.5117020177E+00   -6.8333600188E-01   -9.2395043263E-01   1.9153003639E+00   2.5000000000E-01   2.753890E+00   0.
13    1    7    0    0    0  -1.9156645633E+01  -9.6884889655E+00  -1.9026176712E+01   2.8685367622E+01   1.0500000000E-01     0.000  -1.
-13    1    7    0    0    0  -1.9567265323E+01  -1.0041891730E+01  -1.9551399928E+01   2.9427635411E+01   1.0500000000E-01     0.000   1.
13    1    9    0    0    0   1.0966303048E+00  -4.6186912821E-01  -6.2635055077E-01   1.3487998849E+00   1.0500000000E-01     0.000  -1.
-13    1    9    0    0    0   4.1507171290E-01  -2.2146687368E-01  -2.9759988187E-01   5.6650047897E-01   1.0500000000E-01     0.000   1.
</event>
<event>
 13   1  9.2978750E-05  1.2500000E+02  7.5467720E-03  1.2380620E-01
   21   -1    0    0  502  501   0.0000000000E+00   0.0000000000E+00   5.1179800035E+01   5.1179800035E+01   0.0000000000E+00     0.000  -1.
   21   -1    0    0  501  502   0.0000000000E+00   0.0000000000E+00  -7.6324057486E+01   7.6324057486E+01   0.0000000000E+00     0.000  -1.
   25    2    1    2    0    0   0.0000000000E+00   0.0000000000E+00  -2.5144257451E+01   1.2750385752E+02   1.2500000000E+02  2.118E-08  -1.
3000002    2    3    0    0    0   4.5394321222E+01   3.6516580186E+01   8.1358788083E+00   5.9668228997E+01   1.0000000000E+01  1.276E-10  -1.
3000002    2    3    0    0    0  -4.5394321222E+01  -3.6516580186E+01  -3.3280136259E+01   6.7835628523E+01   1.0000000000E+01  8.404E-10  -1.
3000001    1    4    0    0    0   4.5750945730E+01   3.6638323988E+01   8.2560305908E+00   5.9200319771E+01   1.0000000000E+00     0.000  -1.
3000022   2   4   0   0   0   -3.5662450861E-01   -1.2174380148E-01   -1.2015178243E-01   4.6790922641E-01   2.5000000000E-01   3.202084E-01   0.
3000001    1    5    0    0    0  -1.3518945896E+01  -7.0208772349E+00  -5.2377881590E+00   1.6139672862E+01   1.0000000000E+00     0.000   1.
3000022   2   5   0   0   0   -3.1875375326E+01   -2.9495702951E+01   -2.8042348100E+01   5.1695955661E+01   2.5000000000E-01   3.876454E+00   0.
13    1    7    0    0    0  -1.3538506915E-01  -1.0267755737E-01  -9.4414442092E-02   2.2093185514E-01   1.0500000000E-01     0.000   1.
-13    1    7    0    0    0  -2.2123943945E-01  -1.9066244107E-02  -2.5737340342E-02   2.4697737127E-01   1.0500000000E-01     0.000  -1.
13    1    9    0    0    0  -2.2783449971E+01  -2.1133941734E+01  -2.0085715863E+01   3.7002379552E+01   1.0500000000E-01     0.000   1.
-13    1    9    0    0    0  -9.0919253547E+00  -8.3617612169E+00  -7.9566322373E+00   1.4693576109E+01   1.0500000000E-01     0.000  -1.
</event>
<event>
 13   1  9.2978750E-05  1.2500000E+02  7.5467720E-03  1.2380620E-01
   21   -1    0    0  502  501   0.0000000000E+00   0.0000000000E+00   2.9348915575E+01   2.9348915575E+01   0.0000000000E+00     0.000  -1.
   21   -1    0    0  501  502   0.0000000000E+00   0.0000000000E+00  -1.3309691085E+02   1.3309691085E+02   0.0000000000E+00     0.000  -1.
   25    2    1    2    0    0   0.0000000000E+00   0.0000000000E+00  -1.0374799528E+02   1.6244582643E+02   1.2500000000E+02  3.309E-08  -1.
3000002    2    3    0    0    0  -4.7682894281E+01  -3.7887137769E+01  -6.4683557798E+01   8.9403894014E+01   1.0000000000E+01  3.048E-11  -1.
3000002    2    3    0    0    0   4.7682894281E+01   3.7887137769E+01  -3.9064437482E+01   7.3041932416E+01   1.0000000000E+01  9.781E-10  -1.
3000001    1    4    0    0    0  -3.9502496199E+01  -2.7200875381E+01  -5.3903238719E+01   7.2158810771E+01   1.0000000000E+00     0.000  -1.
3000022   2   4   0   0   0   -8.1803980822E+00   -1.0686262387E+01   -1.0780319079E+01   1.7245083242E+01   2.5000000000E-01   3.123323E-01   0.
3000001    1    5    0    0    0   2.0778189498E+01   1.6250723761E+01  -1.1203215795E+01   2.8676318204E+01   1.0000000000E+00     0.000  -1.
3000022   2   5   0   0   0   2.6904704784E+01   2.1636414008E+01   -2.7861221687E+01   4.4365614213E+01   2.5000000000E-01   6.001318E-01   0.
13    1    7    0    0    0  -1.9001100743E+00  -2.4908863977E+00  -2.4970620451E+00   4.0076523300E+00   1.0500000000E-01     0.000   1.
-13    1    7    0    0    0  -6.2802880079E+00  -8.1953759895E+00  -8.2832570337E+00   1.3237430912E+01   1.0500000000E-01     0.000  -1.
13    1    9    0    0    0   6.3819946992E+00   5.1483178093E+00  -6.6022654618E+00   1.0527866205E+01   1.0500000000E-01     0.000   1.
-13    1    9    0    0    0   2.0522710084E+01   1.6488096199E+01  -2.1258956225E+01   3.3837748008E+01   1.0500000000E-01     0.000  -1.
</event>
<event>
 13   1  9.2978750E-05  1.2500000E+02  7.5467720E-03  1.2380620E-01
   21   -1    0    0  502  501   0.0000000000E+00   0.0000000000E+00   5.1954996343E+01   5.1954996343E+01   0.0000000000E+00     0.000  -1.
   21   -1    0    0  501  502   0.0000000000E+00   0.0000000000E+00  -7.5185261764E+01   7.5185261764E+01   0.0000000000E+00     0.000  -1.
   25    2    1    2    0    0   0.0000000000E+00   0.0000000000E+00  -2.3230265421E+01   1.2714025811E+02   1.2500000000E+02  2.474E-08  -1.
3000002    2    3    0    0    0  -1.8586718889E+01   2.7854412677E+00   4.8153448897E+01   5.2649591098E+01   1.0000000000E+01  1.261E-10  -1.
3000002    2    3    0    0    0   1.8586718889E+01  -2.7854412677E+00  -7.1383714318E+01   7.4490667012E+01   1.0000000000E+01  1.836E-09  -1.
3000001    1    4    0    0    0  -8.1756207620E+00   5.9986640474E+00   1.9674667674E+01   2.2156653477E+01   1.0000000000E+00     0.000  -1.
3000022   2   4   0   0   0   -1.0411098127E+01   -3.2132227796E+00   2.8478781223E+01   3.0492937621E+01   2.5000000000E-01   1.407649E+01   0.
3000001    1    5    0    0    0   6.7750921902E+00   2.8243512217E+00  -3.6307742450E+01   3.7055782219E+01   1.0000000000E+00     0.000  -1.
3000022   2   5   0   0   0   1.1811626699E+01   -5.6097924894E+00   -3.5075971868E+01   3.7434884793E+01   2.5000000000E-01   5.388957E+00   0.
13    1    7    0    0    0  -7.5961440114E+00  -2.3061820502E+00   2.0744298989E+01   2.2211637604E+01   1.0500000000E-01     0.000   1.
-13    1    7    0    0    0  -2.8149541154E+00  -9.0704072935E-01   7.7344822338E+00   8.2813000176E+00   1.0500000000E-01     0.000  -1.
13    1    9    0    0    0   6.7382994903E+00  -3.2403430724E+00  -2.0211276567E+01   2.1550202522E+01   1.0500000000E-01     0.000  -1.
-13    1    9    0    0    0   5.0733272083E+00  -2.3694494170E+00  -1.4864695300E+01   1.5884682272E+01   1.0500000000E-01     0.000   1.
</event>
<event>
 13   1  9.2978750E-05  1.2500000E+02  7.5467720E-03  1.2380620E-01
   21   -1    0    0  502  501   0.0000000000E+00   0.0000000000E+00   3.6171604286E+01   3.6171604286E+01   0.0000000000E+00     0.000  -1.
   21   -1    0    0  501  502   0.0000000000E+00   0.0000000000E+00  -1.0799216891E+02   1.0799216891E+02   0.0000000000E+00     0.000  -1.
   25    2    1    2    0    0   0.0000000000E+00   0.0000000000E+00  -7.1820564628E+01   1.4416377320E+02   1.2500000000E+02  1.454E-08  -1.
3000002    2    3    0    0    0  -3.9918713395E+01  -4.3242276469E+01  -1.4555292233E+01   6.1443101202E+01   1.0000000000E+01  9.995E-10  -1.
3000002    2    3    0    0    0   3.9918713395E+01   4.3242276469E+01  -5.7265272395E+01   8.2720671998E+01   1.0000000000E+01  9.306E-11  -1.
3000001    1    4    0    0    0  -1.8280361151E+01  -1.5206433084E+01  -9.6823658446E+00   2.5693489823E+01   1.0000000000E+00     0.000  -1.
3000022   2   4   0   0   0   -2.1638352244E+01   -2.8035843386E+01   -4.8729263887E+00   3.5749611379E+01   2.5000000000E-01   2.876621E-01   0.
3000001    1    5    0    0    0   3.0137600662E+01   2.5838466830E+01  -3.9069025251E+01   5.5707181546E+01   1.0000000000E+00     0.000  -1.
3000022   2   5   0   0   0   9.7811127325E+00   1.7403809639E+01   -1.8196247144E+01   2.7013490451E+01   2.5000000000E-01   9.870800E-01   0.
13    1    7    0    0    0  -9.8420985427E+00  -1.2845743323E+01  -2.1916676576E+00   1.6330782509E+01   1.0500000000E-01     0.000   1.
-13    1    7    0    0    0  -1.1796253701E+01  -1.5190100063E+01  -2.6812587312E+00   1.9418828870E+01   1.0500000000E-01     0.000  -1.
13    1    9    0    0    0   6.6405747123E+00   1.1809152906E+01  -1.2416931866E+01   1.8377827588E+01   1.0500000000E-01     0.000   1.
-13    1    9    0    0    0   3.1405380202E+00   5.5946567330E+00  -5.7793152779E+00   8.6356628638E+00   1.0500000000E-01     0.000  -1.
</event>
<event>
 13   1  9.2978750E-05  1.2500000E+02  7.5467720E-03  1.2380620E-01
   21   -1    0    0  502  501   0.0000000000E+00   0.0000000000E+00   1.8467299981E+01   1.8467299981E+01   0.0000000000E+00     0.000  -1.
   21   -1    0    0  501  502   0.0000000000E+00   0.0000000000E+00  -2.1152252923E+02   2.1152252923E+02   0.0000000000E+00     0.000  -1.
   25    2    1    2    0    0   0.0000000000E+00   0.0000000000E+00  -1.9305522925E+02   2.2998982921E+02   1.2500000000E+02  2.472E-09  -1.
3000002    2    3    0    0    0  -3.9588804621E+01  -2.6096931451E+01  -2.3904958257E+01   5.4034899017E+01   1.0000000000E+01  1.582E-09   1.
3000002    2    3    0    0    0   3.9588804621E+01   2.6096931451E+01  -1.6915027099E+02   1.7595493019E+02   1.0000000000E+01  4.585E-10   1.
3000001    1    4    0    0    0  -5.4681569247E+00  -5.3412243365E-01  -1.1279139277E+00   5.6972113140E+00   1.0000000000E+00     0.000  -1.
3000022   2   4   0   0   0   -3.4120647696E+01   -2.5562809017E+01   -2.2777044330E+01   4.8337687703E+01   2.5000000000E-01   1.056483E+01   0.
3000001    1    5    0    0    0   2.7610798903E+00   5.3604152292E+00  -2.4996197050E+01   2.5732615113E+01   1.0000000000E+00     0.000  -1.
3000022   2   5   0   0   0   3.6827724731E+01   2.0736516221E+01   -1.4415407394E+02   1.5022231508E+02   2.5000000000E-01   7.935851E+00   0.
13    1    7    0    0    0  -1.2535492237E+01  -9.4403908728E+00  -8.4342028587E+00   1.7815901558E+01   1.0500000000E-01     0.000  -1.
-13    1    7    0    0    0  -2.1585155459E+01  -1.6122418144E+01  -1.4342841471E+01   3.0521786144E+01   1.0500000000E-01     0.000   1.
13    1    9    0    0    0   2.0337779747E+01   1.1375136659E+01  -7.9483611618E+01   8.2829189058E+01   1.0500000000E-01     0.000  -1.
-13    1    9    0    0    0   1.6489944983E+01   9.3613795619E+00  -6.4670462324E+01   6.7393126022E+01   1.0500000000E-01     0.000   1.
</event>
<event>
 13   1  9.2978750E-05  1.2500000E+02  7.5467720E-03  1.2380620E-01
   21   -1    0    0  502  501   0.0000000000E+00   0.0000000000E+00   6.4802837442E+01   6.4802837442E+01   0.0000000000E+00     0.000  -1.
   21   -1    0    0  501  502   0.0000000000E+00   0.0000000000E+00  -6.0278996325E+01   6.0278996325E+01   0.0000000000E+00     0.000  -1.
   25    2    1    2    0    0   0.0000000000E+00   0.0000000000E+00   4.5238411165E+00   1.2508183377E+02   1.2500000000E+02  8.189E-09  -1.
3000002    2    3    0    0    0  -2.3333576703E+00   5.0962084501E+01   3.6978601229E+01   6.3796516861E+01   1.0000000000E+01  1.326E-09  -1.
3000002    2    3    0    0    0   2.3333576703E+00  -5.0962084501E+01  -3.2454760112E+01   6.1285316909E+01   1.0000000000E+01  9.282E-10  -1.
3000001    1    4    0    0    0  -6.0368694086E+00   3.6987581832E+01   2.5597267650E+01   4.5395430532E+01   1.0000000000E+00     0.000  -1.
3000022   2   4   0   0   0   3.7035117383E+00   1.3974502669E+01   1.1381333579E+01   1.8401086328E+01   2.5000000000E-01   6.245225E+00   0.
3000001    1    5    0    0    0   2.5248507894E+00  -4.0846847453E+01  -2.1029862169E+01   4.6022765249E+01   1.0000000000E+00     0.000   1.
3000022   2   5   0   0   0   -1.9149311911E-01   -1.0115237048E+01   -1.1424897943E+01   1.5262551660E+01   2.5000000000E-01   8.354839E+00   0.
13    1    7    0    0    0   1.3531834986E+00   5.1029251187E+00   4.2315237750E+00   6.7666660037E+00   1.0500000000E-01     0.000   1.
-13    1    7    0    0    0   2.3503282398E+00   8.8715775501E+00   7.1498098036E+00   1.1634420325E+01   1.0500000000E-01     0.000  -1.
13    1    9    0    0    0  -1.2946900007E-01  -4.2148920228E+00  -4.8244458729E+00   6.4084615912E+00   1.0500000000E-01     0.000   1.
-13    1    9    0    0    0  -6.2024119039E-02  -5.9003450254E+00  -6.6004520703E+00   8.8540900685E+00   1.0500000000E-01     0.000  -1.
</event>
<event>
 13   1  9.2978750E-05  1.2500000E+02  7.5467720E-03  1.2380620E-01
   21   -1    0    0  502  501   0.0000000000E+00   0.0000000000E+00   3.0938467886E+02   3.0938467886E+02   0.0000000000E+00     0.000   1.
   21   -1    0    0  501  502   0.0000000000E+00   0.0000000000E+00  -1.2625867623E+01   1.2625867623E+01   0.0000000000E+00     0.000   1.
   25    2    1    2    0    0   0.0000000000E+00   0.0000000000E+00   2.9675881124E+02   3.2201054649E+02   1.2500000000E+02  3.105E-08  -1.
3000002    2    3    0    0    0  -5.6537667348E+01  -1.2175194805E+01   2.0372067755E+02   2.1200673966E+02   1.0000000000E+01  4.607E-10  -1.
3000002    2    3    0    0    0   5.6537667348E+01   1.2175194805E+01   9.3038133690E+01   1.1000380683E+02   1.0000000000E+01  1.052E-09  -1.
3000001    1    4    0    0    0  -1.6073038520E+01  -1.2518567437E-01   6.7400117730E+01   6.9297432194E+01   1.0000000000E+00     0.000  -1.
3000022   2   4   0   0   0   -4.0464628828E+01   -1.2050009131E+01   1.3632055982E+02   1.4270930746E+02   2.5000000000E-01   1.018163E+01   0.
3000001    1    5    0    0    0   1.3432484166E+01  -6.2351894874E-01   2.5880819921E+01   2.9182824513E+01   1.0000000000E+00     0.000   1.
3000022   2   5   0   0   0   4.3105183182E+01   1.2798713754E+01   6.7157313768E+01   8.0820982322E+01   2.5000000000E-01   1.442651E+00   0.
13    1    7    0    0    0  -2.0260891401E+01  -5.9630497190E+00   6.8212768822E+01   7.1407664419E+01   1.0500000000E-01     0.000   1.
-13    1    7    0    0    0  -2.0203737427E+01  -6.0869594117E+00   6.8107790999E+01   7.1301643043E+01   1.0500000000E-01     0.000  -1.
13    1    9    0    0    0   3.0037884909E+01   8.9658261262E+00   4.6797093489E+01   5.6326188864E+01   1.0500000000E-01     0.000   1.
-13    1    9    0    0    0   1.3067298272E+01   3.8328876275E+00   2.0360220280E+01   2.4494793458E+01   1.0500000000E-01     0.000  -1.
</event>
<event>
 13   1  9.2978750E-05  1.2500000E+02  7.5467720E-03  1.2380620E-01
   21   -1    0    0  502  501   0.0000000000E+00   0.0000000000E+00   5.2408581960E+01   5.2408581960E+01   0.0000000000E+00     0.000   1.
   21   -1    0    0  501  502   0.0000000000E+00   0.0000000000E+00  -7.4534548616E+01   7.4534548616E+01   0.0000000000E+00     0.000   1.
   25    2    1    2    0    0   0.0000000000E+00   0.0000000000E+00  -2.2125966656E+01   1.2694313058E+02   1.2500000000E+02  5.157E-08  -1.
3000002    2    3    0    0    0  -2.0048486223E+01  -2.8017992777E+01  -6.3037664764E+01   7.2530661778E+01   1.0000000000E+01  1.190E-09   1.
3000002    2    3    0    0    0   2.0048486223E+01   2.8017992777E+01   4.0911698108E+01   5.4412468802E+01   1.0000000000E+01  2.063E-09   1.
3000001    1    4    0    0    0  -5.4705168359E+00  -1.6100781971E+01  -3.0757861737E+01   3.5159746773E+01   1.0000000000E+00     0.000   1.
3000022   2   4   0   0   0   -1.4577969387E+01   -1.1917210806E+01   -3.2279803027E+01   3.7370915005E+01   2.5000000000E-01   1.528021E+01   0.
3000001    1    5    0    0    0   7.7314142780E+00   1.2288532959E+01   2.4762928608E+01   2.8722559814E+01   1.0000000000E+00     0.000  -1.
3000022   2   5   0   0   0   1.2317071945E+01   1.5729459818E+01   1.6148769500E+01   2.5689908988E+01   2.5000000000E-01   1.156546E+01   0.
13    1    7    0    0    0  -3.9491616898E+00  -3.1837027365E+00  -8.7153320032E+00   1.0084635744E+01   1.0500000000E-01     0.000   1.
-13    1    7    0    0    0  -1.0628807697E+01  -8.7335080695E+00  -2.3564471024E+01   2.7286279261E+01   1.0500000000E-01     0.000  -1.
13    1    9    0    0    0   7.1127623509E+00   9.1519182114E+00   9.3057964914E+00   1.4864651646E+01   1.0500000000E-01     0.000   1.
-13    1    9    0    0    0   5.2043095938E+00   6.5775416067E+00   6.8429730084E+00   1.0825257342E+01   1.0500000000E-01     0.000  -1.
</event>
<event>
 13   1  9.2978750E-05  1.2500000E+02  7.5467720E-03  1.2380620E-01
   21   -1    0    0  502  501   0.0000000000E+00   0.0000000000E+00   3.2789699312E+01   3.2789699312E+01   0.0000000000E+00     0.000  -1.
   21   -1    0    0  501  502   0.0000000000E+00   0.0000000000E+00  -1.1913040015E+02   1.1913040015E+02   0.0000000000E+00     0.000  -1.
   25    2    1    2    0    0   0.0000000000E+00   0.0000000000E+00  -8.6340700841E+01   1.5192009947E+02   1.2500000000E+02  1.769E-08  -1.
3000002    2    3    0    0    0  -3.5394493102E+01  -4.8437807491E+01  -6.0667268969E+01   8.5904067777E+01   1.0000000000E+01  1.661E-09   1.
3000002    2    3    0    0    0   3.5394493102E+01   4.8437807491E+01  -2.5673431872E+01   6.6016031693E+01   1.0000000000E+01  8.771E-10   1.
3000001    1    4    0    0    0  -3.2065109095E+01  -3.8924321143E+01  -5.3531732746E+01   7.3552161141E+01   1.0000000000E+00     0.000   1.
3000022   2   4   0   0   0   -3.3293840070E+00   -9.5134863474E+00   -7.1355362230E+00   1.2351906636E+01   2.5000000000E-01   2.313276E+00   0.
3000001    1    5    0    0    0   1.3642690570E+01   2.0624783427E+01  -1.5761485406E+01   2.9341593679E+01   1.0000000000E+00     0.000   1.
3000022   2   5   0   0   0   2.1751802531E+01   2.7813024064E+01   -9.9119464663E+00   3.6674438015E+01   2.5000000000E-01   3.551774E+00   0.
13    1    7    0    0    0  -2.0056396323E+00  -5.7271983913E+00  -4.2185377566E+00   7.3912433021E+00   1.0500000000E-01     0.000   1.
-13    1    7    0    0    0  -1.3237443747E+00  -3.7862879561E+00  -2.9169984664E+00   4.9606633336E+00   1.0500000000E-01     0.000  -1.
13    1    9    0    0    0   5.3281538499E+00   6.7996114561E+00  -2.4029092011E+00   8.9671030456E+00   1.0500000000E-01     0.000   1.
-13    1    9    0    0    0   1.6423648682E+01   2.1013412608E+01  -7.5090372651E+00   2.7707334969E+01   1.0500000000E-01     0.000  -1.
</event>
<event>
 13   1  9.2978750E-05  1.2500000E+02  7.5467720E-03  1.2380620E-01
   21   -1    0    0  502  501   0.0000000000E+00   0.0000000000E+00   3.6616150514E+00   3.6616150514E+00   0.0000000000E+00     0.000   1.
   21   -1    0    0  501  502   0.0000000000E+00   0.0000000000E+00  -1.0668106683E+03   1.0668106683E+03   0.0000000000E+00     0.000   1.
   25    2    1    2    0    0   0.0000000000E+00   0.0000000000E+00  -1.0631490532E+03   1.0704722833E+03   1.2500000000E+02  5.212E-08  -1.
3000002    2    3    0    0    0   4.2082900009E+01   4.3121220900E+01  -4.1801487648E+02   4.2245336680E+02   1.0000000000E+01  1.223E-09   1.
3000002    2    3    0    0    0  -4.2082900009E+01  -4.3121220900E+01  -6.4513417672E+02   6.4801891650E+02   1.0000000000E+01  1.320E-09   1.
3000001    1    4    0    0    0   5.6267273608E+00   1.8472274102E+00  -4.1993688815E+01   4.2421011423E+01   1.0000000000E+00     0.000  -1.
3000022   2   4   0   0   0   3.6456172648E+01   4.1273993490E+01   -3.7602118766E+02   3.8003235538E+02   2.5000000000E-01   6.543114E-01   0.
3000001    1    5    0    0    0  -3.1921093391E+01  -3.8118113484E+01  -5.3157495704E+02   5.3389594654E+02   1.0000000000E+00     0.000   1.
3000022   2   5   0   0   0   -1.0161806617E+01   -5.0031074162E+00   -1.1355921968E+02   1.1412296996E+02   2.5000000000E-01   1.331642E+00   0.
13    1    7    0    0    0   9.6827859679E+00   1.1007071908E+01  -9.9980519673E+01   1.0104962798E+02   1.0500000000E-01     0.000   1.
-13    1    7    0    0    0   2.6773386680E+01   3.0266921581E+01  -2.7604066799E+02   2.7898272740E+02   1.0500000000E-01     0.000  -1.
13    1    9    0    0    0  -6.0878113447E+00  -2.9385274762E+00  -6.7412359045E+01   6.7750524483E+01   1.0500000000E-01     0.000   1.
-13    1    9    0    0    0  -4.0739952723E+00  -2.0645799400E+00  -4.6146860638E+01   4.6372445477E+01   1.0500000000E-01     0.000  -1.
</event>
<event>
 13   1  9.2978750E-05  1.2500000E+02  7.5467720E-03  1.2380620E-01
   21   -1    0    0  502  501   0.0000000000E+00   0.0000000000E+00   5.3129456178E+01   5.3129456178E+01   0.0000000000E+00     0.000   1.
   21   -1    0    0  501  502   0.0000000000E+00   0.0000000000E+00  -7.3523244561E+01   7.3523244561E+01   0.0000000000E+00     0.000   1.
   25    2    1    2    0    0   0.0000000000E+00   0.0000000000E+00  -2.0393788383E+01   1.2665270074E+02   1.2500000000E+02  2.229E-08  -1.
3000002    2    3    0    0    0   4.1385062024E+01  -4.4092424268E+01  -2.2580798683E+01   6.5320423343E+01   1.0000000000E+01  4.199E-10   1.
3000002    2    3    0    0    0  -4.1385062024E+01   4.4092424268E+01   2.1870103005E+00   6.1332277397E+01   1.0000000000E+01  8.119E-10   1.
3000001    1    4    0    0    0   2.0058564305E+00  -3.9574378744E+00  -4.1272720148E+00   6.1415917182E+00   1.0000000000E+00     0.000  -1.
3000022   2   4   0   0   0   3.9379205593E+01   -4.0134986394E+01   -1.8453526669E+01   5.9178831625E+01   2.5000000000E-01   5.485857E+00   0.
3000001    1    5    0    0    0  -3.5499101822E+01   3.1844285156E+01   1.9287951246E+00   4.7738506239E+01   1.0000000000E+00     0.000   1.
3000022   2   5   0   0   0   -5.8859602017E+00   1.2248139112E+01   2.5821517592E-01   1.3593771158E+01   2.5000000000E-01   6.803100E+00   0.
13    1    7    0    0    0   2.9243206461E+01  -2.9820748562E+01  -1.3736902948E+01   4.3967666489E+01   1.0500000000E-01     0.000   1.
-13    1    7    0    0    0   1.0135999133E+01  -1.0314237832E+01  -4.7166237203E+00   1.5211165136E+01   1.0500000000E-01     0.000  -1.
13    1    9    0    0    0  -4.0658879957E+00   8.4580354036E+00   2.2657386896E-01   9.3878734972E+00   1.0500000000E-01     0.000  -1.
-13    1    9    0    0    0  -1.8200722061E+00   3.7901037085E+00   3.1641306961E-02   4.2058976603E+00   1.0500000000E-01     0.000   1.
</event>
<event>
 13   1  9.2978750E-05  1.2500000E+02  7.5467720E-03  1.2380620E-01
   21   -1    0    0  502  501   0.0000000000E+00   0.0000000000E+00   1.2575197783E+01   1.2575197783E+01   0.0000000000E+00     0.000   1.
   21   -1    0    0  501  502   0.0000000000E+00   0.0000000000E+00  -3.1063129720E+02   3.1063129720E+02   0.0000000000E+00     0.000   1.
   25    2    1    2    0    0   0.0000000000E+00   0.0000000000E+00  -2.9805609942E+02   3.2320649499E+02   1.2500000000E+02  5.925E-08  -1.
3000002    2    3    0    0    0   4.6679417601E+01   2.0222685367E+01  -2.3927897000E+02   2.4483126948E+02   1.0000000000E+01  3.673E-10   1.
3000002    2    3    0    0    0  -4.6679417601E+01  -2.0222685367E+01  -5.8777129424E+01   7.8375225514E+01   1.0000000000E+01  1.019E-09   1.
3000001    1    4    0    0    0   6.6060005742E+00   5.3951617007E+00  -2.8538446778E+01   2.9802515965E+01   1.0000000000E+00     0.000  -1.
3000022   2   4   0   0   0   4.0073417027E+01   1.4827523666E+01   -2.1074052322E+02   2.1502875351E+02   2.5000000000E-01   1.871972E+00   0.
3000001    1    5    0    0    0  -1.9019940828E+01  -5.8471207112E+00  -1.6626905639E+01   2.5949970344E+01   1.0000000000E+00     0.000  -1.
3000022   2   5   0   0   0   -2.7659476773E+01   -1.4375564656E+01   -4.2150223785E+01   5.2425255170E+01   2.5000000000E-01   4.697973E+00   0.
13    1    7    0    0    0   2.3951386068E+01   8.9282852504E+00  -1.2600592410E+02   1.2857249747E+02   1.0500000000E-01     0.000  -1.
-13    1    7    0    0    0   1.6122030958E+01   5.8992384158E+00  -8.4734599118E+01   8.6456256042E+01   1.0500000000E-01     0.000   1.
13    1    9    0    0    0  -1.1559413315E+01  -6.0189968691E+00  -1.7515110353E+01   2.1832051556E+01   1.0500000000E-01     0.000  -1.
-13    1    9    0    0    0  -1.6100063458E+01  -8.3565677867E+00  -2.4635113433E+01   3.0593203614E+01   1.0500000000E-01     0.000   1.
</event>
<event>
 13   1  9.2978750E-05  1.2500000E+02  7.5467720E-03  1.2380620E-01
   21   -1    0    0  502  501   0.0000000000E+00   0.0000000000E+00   1.0344977283E+02   1.0344977283E+02   0.0000000000E+00     0.000  -1.
   21   -1    0    0  501  502   0.0000000000E+00   0.0000000000E+00  -3.7759870254E+01   3.7759870254E+01   0.0000000000E+00     0.000  -1.
   25    2    1    2    0    0   0.0000000000E+00   0.0000000000E+00   6.5689902579E+01   1.4120964309E+02   1.2500000000E+02  4.773E-08  -1.
3000002    2    3    0    0    0   2.5987501573E+01  -5.5748365204E+01   3.8264993336E+01   7.3126193501E+01   1.0000000000E+01  1.608E-09  -1.
3000002    2    3    0    0    0  -2.5987501573E+01   5.5748365204E+01   2.7424909243E+01   6.8083449589E+01   1.0000000000E+01  1.186E-09  -1.
3000001    1    4    0    0    0   6.6905866868E+00  -1.1365138870E+01   1.2939830195E+01   1.8503230454E+01   1.0000000000E+00     0.000   1.
3000022   2   4   0   0   0   1.9296914886E+01   -4.4383226334E+01   2.5325163141E+01   5.4622963047E+01   2.5000000000E-01   3.963092E+00   0.
3000001    1    5    0    0    0  -8.2186445728E+00   8.7468272736E+00   4.5780330031E+00   1.2884544701E+01   1.0000000000E+00     0.000  -1.
3000022   2   5   0   0   0   -1.7768857000E+01   4.7001537931E+01   2.2846876240E+01   5.5198904888E+01   2.5000000000E-01   1.120467E+01   0.
13    1    7    0    0    0   5.8148980376E+00  -1.3477294402E+01   7.6558017048E+00   1.6555145071E+01   1.0500000000E-01     0.000  -1.
-13    1    7    0    0    0   1.3482016849E+01  -3.0905931932E+01   1.7669361436E+01   3.8067817976E+01   1.0500000000E-01     0.000   1.
13    1    9    0    0    0  -1.2102469562E+01   3.2046959644E+01   1.5629193950E+01   3.7653155518E+01   1.0500000000E-01     0.000  -1.
-13    1    9    0    0    0  -5.6663874384E+00   1.4954578287E+01   7.2176822903E+00   1.7545749371E+01   1.0500000000E-01     0.000   1.
</event>
<event>
 13   1  9.2978750E-05  1.2500000E+02  7.5467720E-03  1.2380620E-01
   21   -1    0    0  502  501   0.0000000000E+00   0.0000000000E+00   8.5526789929E+00   8.5526789929E+00   0.0000000000E+00     0.000   1.
   21   -1    0    0  501  502   0.0000000000E+00   0.0000000000E+00  -4.5672823723E+02   4.5672823723E+02   0.0000000000E+00     0.000   1.
   25    2    1    2    0    0   0.0000000000E+00   0.0000000000E+00  -4.4817555824E+02   4.6528091622E+02   1.2500000000E+02  5.718E-08  -1.
3000002    2    3    0    0    0   2.7105341424E+01  -4.4658401088E+01  -3.4625336989E+02   3.5031481339E+02   1.0000000000E+01  3.035E-10   1.
3000002    2    3    0    0    0  -2.7105341424E+01   4.4658401088E+01  -1.0192218835E+02   1.1496610283E+02   1.0000000000E+01  6.907E-10   1.
3000001    1    4    0    0    0   3.5275300232E-01  -6.4949030786E+00  -4.2108824455E+01   4.2619963605E+01   1.0000000000E+00     0.000  -1.
3000022   2   4   0   0   0   2.6752588422E+01   -3.8163498010E+01   -3.0414454543E+02   3.0769484979E+02   2.5000000000E-01   3.123435E+00   0.
3000001    1    5    0    0    0  -1.3043970762E+00   6.3375842465E-01  -6.7596858579E+00   6.9854458963E+00   1.0000000000E+00     0.000   1.
3000022   2   5   0   0   0   -2.5800944348E+01   4.4024642664E+01   -9.5162502493E+01   1.0798065693E+02   2.5000000000E-01   9.382512E-01   0.
13    1    7    0    0    0   7.5376503756E+00  -1.0821932605E+01  -8.6123955657E+01   8.7127935598E+01   1.0500000000E-01     0.000   1.
-13    1    7    0    0    0   1.9214938047E+01  -2.7341565405E+01  -2.1802058978E+02   2.2056691419E+02   1.0500000000E-01     0.000  -1.
13    1    9    0    0    0  -6.9123928758E+00   1.1854456435E+01  -2.5631473625E+01   2.9073919203E+01   1.0500000000E-01     0.000  -1.
-13    1    9    0    0    0  -1.8888551472E+01   3.2170186228E+01  -6.9531028869E+01   7.8906737730E+01   1.0500000000E-01     0.000   1.
</event>
<event>
 13   1  9.2978750E-05  1.2500000E+02  7.5467720E-03  1.2380620E-01
   21   -1    0    0  502  501   0.0000000000E+00   0.0000000000E+00   9.6563990865E+00   9.6563990865E+00   0.0000000000E+00     0.000  -1.
   21   -1    0    0  501  502   0.0000000000E+00   0.0000000000E+00  -4.0452449873E+02   4.0452449873E+02   0.0000000000E+00     0.000  -1.
   25    2    1    2    0    0   0.0000000000E+00   0.0000000000E+00  -3.9486809964E+02   4.1418089782E+02   1.2500000000E+02  6.318E-09  -1.
3000002    2    3    0    0    0   1.0641755669E+01  -5.9642610713E+01  -2.3604132986E+02   2.4389751409E+02   1.0000000000E+01  1.416E-10  -1.
3000002    2    3    0    0    0  -1.0641755669E+01   5.9642610713E+01  -1.5882676978E+02   1.7028338373E+02   1.0000000000E+01  3.056E-09  -1.
3000001    1    4    0    0    0  -1.8246244743E-01  -2.1441870166E+01  -9.3229069127E+01   9.5668419131E+01   1.0000000000E+00     0.000  -1.
3000022   2   4   0   0   0   1.0824218116E+01   -3.8200740546E+01   -1.4281226074E+02   1.4822909496E+02   2.5000000000E-01   6.618204E+00   0.
3000001    1    5    0    0    0   5.2081687982E-01   5.3758929664E-01  -3.5442884139E+00   3.7579559384E+00   1.0000000000E+00     0.000  -1.
3000022   2   5   0   0   0   -1.1162572548E+01   5.9105021416E+01   -1.5528248136E+02   1.6652542779E+02   2.5000000000E-01   9.638058E+00   0.
13    1    7    0    0    0   5.2173198841E+00  -1.8655841245E+01  -6.9730322700E+01   7.2371194326E+01   1.0500000000E-01     0.000  -1.
-13    1    7    0    0    0   5.6068982319E+00  -1.9544899301E+01  -7.3081938036E+01   7.5857900634E+01   1.0500000000E-01     0.000   1.
13    1    9    0    0    0  -3.2111375561E+00   1.7032467723E+01  -4.4862388555E+01   4.8094295847E+01   1.0500000000E-01     0.000   1.
-13    1    9    0    0    0  -7.9514349923E+00   4.2072553693E+01  -1.1042009281E+02   1.1843113194E+02   1.0500000000E-01     0.000  -1.
</event>
<event>
 13   1  9.2978750E-05  1.2500000E+02  7.5467720E-03  1.2380620E-01
   21   -1    0    0  502  501   0.0000000000E+00   0.0000000000E+00   1.1014128336E+01   1.1014128336E+01   0.0000000000E+00     0.000   1.
   21   -1    0    0  501  502   0.0000000000E+00   0.0000000000E+00  -3.5465811556E+02   3.5465811556E+02   0.0000000000E+00     0.000   1.
   25    2    1    2    0    0   0.0000000000E+00   0.0000000000E+00  -3.4364398722E+02   3.6567224389E+02   1.2500000000E+02  1.428E-08  -1.
3000002    2    3    0    0    0   2.2454936577E+01  -1.2793287547E+01  -7.9392602668E+00   2.8825756478E+01   1.0000000000E+01  2.482E-09  -1.
3000002    2    3    0    0    0  -2.2454936577E+01   1.2793287547E+01  -3.3570472695E+02   3.3684648741E+02   1.0000000000E+01  4.583E-11  -1.
3000001    1    4    0    0    0   1.7226016268E+01  -9.4646758808E+00  -1.0269988203E+01   2.2198837440E+01   1.0000000000E+00     0.000  -1.
3000022   2   4   0   0   0   5.2289203092E+00   -3.3286116660E+00   2.3307279363E+00   6.6269190380E+00   2.5000000000E-01   9.908043E-01   0.
3000001    1    5    0    0    0  -1.7304597587E+01   4.4855653020E+00  -2.0971938146E+02   2.1048227563E+02   1.0000000000E+00     0.000  -1.
3000022   2   5   0   0   0   -5.1503389904E+00   8.3077222448E+00   -1.2598534549E+02   1.2636421178E+02   2.5000000000E-01   1.189638E+01   0.
13    1    7    0    0    0   3.1232741876E+00  -1.9703752566E+00   1.3223342271E+00   3.9238773058E+00   1.0500000000E-01     0.000  -1.
-13    1    7    0    0    0   2.1056461216E+00  -1.3582364094E+00   1.0083937092E+00   2.7030417322E+00   1.0500000000E-01     0.000   1.
13    1    9    0    0    0  -2.3276577795E+00   3.7477327050E+00  -5.6005738396E+01   5.6179331158E+01   1.0500000000E-01     0.000   1.
-13    1    9    0    0    0  -2.8226812109E+00   4.5599895398E+00  -6.9979607094E+01   7.0184880622E+01   1.0500000000E-01     0.000  -1.
</event>
<event>
 13   1  9.2978750E-05  1.2500000E+02  7.5467720E-03  1.2380620E-01
   21   -1    0    0  502  501   0.0000000000E+00   0.0000000000E+00   1.2048782325E+02   1.2048782325E+02   0.0000000000E+00     0.000   1.
   21   -1    0    0  501  502   0.0000000000E+00   0.0000000000E+00  -3.2420288580E+01   3.2420288580E+01   0.0000000000E+00     0.000   1.
   25    2    1    2    0    0   0.0000000000E+00   0.0000000000E+00   8.8067534666E+01   1.5290811183E+02   1.2500000000E+02  1.322E-08  -1.
3000002    2    3    0    0    0   3.7865121969E+01  -4.0233398134E+01   7.7618041372E+01   9.5796942193E+01   1.0000000000E+01  3.298E-10   1.
3000002    2    3    0    0    0  -3.7865121969E+01   4.0233398134E+01   1.0449493294E+01   5.7111169637E+01   1.0000000000E+01  4.115E-11   1.
3000001    1    4    0    0    0   2.3295249320E+01  -2.8317376321E+01   4.4165676731E+01   5.7412101893E+01   1.0000000000E+00     0.000   1.
3000022   2   4   0   0   0   1.4569872649E+01   -1.1916021813E+01   3.3452364640E+01   3.8384840300E+01   2.5000000000E-01   9.351567E-01   0.
3000001    1    5    0    0    0  -1.1162005686E+01   1.5024420279E+01   7.7693391815E+00   2.0290051921E+01   1.0000000000E+00     0.000  -1.
3000022   2   5   0   0   0   -2.6703116284E+01   2.5208977856E+01   2.6801541130E+00   3.6821117716E+01   2.5000000000E-01   7.475759E+00   0.
13    1    7    0    0    0   8.7835349215E+00  -7.2643546506E+00   2.0255991866E+01   2.3243011115E+01   1.0500000000E-01     0.000  -1.
-13    1    7    0    0    0   5.7863377274E+00  -4.6516671628E+00   1.3196372774E+01   1.5141829185E+01   1.0500000000E-01     0.000   1.
13    1    9    0    0    0  -1.2777682651E+01   1.1975987682E+01   1.2538080843E+00   1.7557804948E+01   1.0500000000E-01     0.000   1.
-13    1    9    0    0    0  -1.3925433633E+01   1.3232990174E+01   1.4263460286E+00   1.9263312768E+01   1.0500000000E-01     0.000  -1.
</event>
<event>
 13   1  9.2978750E-05  1.2500000E+02  7.5467720E-03  1.2380620E-01
   21   -1    0    0  502  501   0.0000000000E+00   0.0000000000E+00   9.6326630546E+01   9.6326630546E+01   0.0000000000E+00     0.000  -1.
   21   -1    0    0  501  502   0.0000000000E+00   0.0000000000E+00  -4.0552129539E+01   4.0552129539E+01   0.0000000000E+00     0.000  -1.
   25    2    1    2    0    0   0.0000000000E+00   0.0000000000E+00   5.5774501007E+01   1.3687876009E+02   1.2500000000E+02  2.119E-08  -1.
3000002    2    3    0    0    0   4.4668367693E+01   3.1909717463E+01   5.8718849849E+01   8.1002447300E+01   1.0000000000E+01  8.339E-11  -1.
3000002    2    3    0    0    0  -4.4668367693E+01  -3.1909717463E+01  -2.9443488423E+00   5.5876312790E+01   1.0000000000E+01  3.991E-10  -1.
3000001    1    4    0    0    0   1.9773561725E+01   1.6962376429E+01   3.4152546823E+01   4.2966410275E+01   1.0000000000E+00     0.000  -1.
3000022   2   4   0   0   0   2.4894805968E+01   1.4947341034E+01   2.4566303026E+01   3.8036037025E+01   2.5000000000E-01   5.762012E-01   0.
3000001    1    5    0    0    0  -3.4327321907E+01  -2.4727226675E+01   1.9566666015E+00   4.2363065429E+01   1.0000000000E+00     0.000  -1.
3000022   2   5   0   0   0   -1.0341045786E+01   -7.1824907879E+00   -4.9010154438E+00   1.3513247361E+01   2.5000000000E-01   5.986784E+00   0.
13    1    7    0    0    0   1.6378020517E+01   9.7799911912E+00   1.6098046204E+01   2.4960887411E+01   1.0500000000E-01     0.000  -1.
-13    1    7    0    0    0   8.5167854510E+00   5.1673498428E+00   8.4682568218E+00   1.3075149614E+01   1.0500000000E-01     0.000   1.
13    1    9    0    0    0  -5.8981064573E+00  -4.0200220821E+00  -2.7577040670E+00   7.6527246157E+00   1.0500000000E-01     0.000  -1.
-13    1    9    0    0    0  -4.4429393288E+00  -3.1624687058E+00  -2.1433113768E+00   5.8605227457E+00   1.0500000000E-01     0.000   1.
</event>
<event>
 13   1  9.2978750E-05  1.2500000E+02  7.5467720E-03  1.2380620E-01
   21   -1    0    0  502  501   0.0000000000E+00   0.0000000000E+00   3.8753100781E+01   3.8753100781E+01   0.0000000000E+00     0.000  -1.
   21   -1    0    0  501  502   0.0000000000E+00   0.0000000000E+00  -1.0079838571E+02   1.0079838571E+02   0.0000000000E+00     0.000  -1.
   25    2    1    2    0    0   0.0000000000E+00   0.0000000000E+00  -6.2045284928E+01   1.3955148649E+02   1.2500000000E+02  5.391E-08  -1.
3000002    2    3    0    0    0  -3.9528236678E+01   4.6316278317E+01  -1.9938585628E+01   6.4847716451E+01   1.0000000000E+01  1.684E-11   1.
3000002    2    3    0    0    0   3.9528236678E+01  -4.6316278317E+01  -4.2106699300E+01   7.4703770039E+01   1.0000000000E+01  2.961E-10   1.
3000001    1    4    0    0    0  -2.5561504241E+01   3.3683837393E+01  -1.7813006193E+01   4.5894385171E+01   1.0000000000E+00     0.000   1.
3000022   2   4   0   0   0   -1.3966732437E+01   1.2632440925E+01   -2.1255794349E+00   1.8953331280E+01   2.5000000000E-01   7.227946E+00   0.
3000001    1    5    0    0    0   1.4061405018E+01  -1.3466944786E+01  -8.5716016812E+00   2.1296808876E+01   1.0000000000E+00     0.000  -1.
3000022   2   5   0   0   0   2.5466831661E+01   -3.2849333532E+01   -3.3535097619E+01   5.3406961163E+01   2.5000000000E-01   3.091134E+01   0.
13    1    7    0    0    0  -6.9351832330E+00   6.2635120007E+00  -1.1226734201E+00   9.4127450654E+00   1.0500000000E-01     0.000   1.
-13    1    7    0    0    0  -7.0315492042E+00   6.3689289241E+00  -1.0029060148E+00   9.5405862151E+00   1.0500000000E-01     0.000  -1.
13    1    9    0    0    0   1.7047051301E+01  -2.1903754013E+01  -2.2378872810E+01   3.5653911022E+01   1.0500000000E-01     0.000  -1.
-13    1    9    0    0    0   8.4197803597E+00  -1.0945579518E+01  -1.1156224809E+01   1.7753050140E+01   1.0500000000E-01     0.000   1.
</event>
<event>
 13   1  9.2978750E-05  1.2500000E+02  7.5467720E-03  1.2380620E-01
   21   -1    0    0  502  501   0.0000000000E+00   0.0000000000E+00   5.2989877743E+01   5.2989877743E+01   0.0000000000E+00     0.000  -1.
   21   -1    0    0  501  502   0.0000000000E+00   0.0000000000E+00  -7.3716909085E+01   7.3716909085E+01   0.0000000000E+00     0.000  -1.
   25    2    1    2    0    0   0.0000000000E+00   0.0000000000E+00  -2.0727031342E+01   1.2670678683E+02   1.2500000000E+02  5.498E-09  -1.
3000002    2    3    0    0    0   3.2901121910E+01  -4.9137093175E+01   7.4639014385E+00   6.0437137369E+01   1.0000000000E+01  7.863E-10  -1.
3000002    2    3    0    0    0  -3.2901121910E+01   4.9137093175E+01  -2.8190932781E+01   6.6269649461E+01   1.0000000000E+01  9.756E-10  -1.
3000001    1    4    0    0    0   5.2192350067E+00  -2.9747713868E+00   1.5665207617E+00   6.2883754782E+00   1.0000000000E+00     0.000  -1.
3000022   2   4   0   0   0   2.7681886903E+01   -4.6162321789E+01   5.8973806769E+00   5.4148761891E+01   2.5000000000E-01   2.037416E+00   0.
3000001    1    5    0    0    0  -1.7749905310E+01   2.5315168047E+01  -9.3087412777E+00   3.2304326892E+01   1.0000000000E+00     0.000  -1.
3000022   2   5   0   0   0   -1.5151216600E+01   2.3821925128E+01   -1.8882191503E+01   3.3965322569E+01   2.5000000000E-01   3.382757E+00   0.
13    1    7    0    0    0   7.5501870421E+00  -1.2616355398E+01   1.5759503011E+00   1.4787575604E+01   1.0500000000E-01     0.000   1.
-13    1    7    0    0    0   2.0131699861E+01  -3.3545966390E+01   4.3214303757E+00   3.9361186286E+01   1.0500000000E-01     0.000  -1.
13    1    9    0    0    0  -9.6353015924E+00   1.5254699425E+01  -1.2050385956E+01   2.1697182259E+01   1.0500000000E-01     0.000  -1.
-13    1    9    0    0    0  -5.5159150077E+00   8.5672257033E+00  -6.8318055472E+00   1.2268140310E+01   1.0500000000E-01     0.000   1.
</event>
<event>
 13   1  9.2978750E-05  1.2500000E+02  7.5467720E-03  1.2380620E-01
   21   -1    0    0  502  501   0.0000000000E+00   0.0000000000E+00   1.7661830972E+02   1.7661830972E+02   0.0000000000E+00     0.000   1.
   21   -1    0    0  501  502   0.0000000000E+00   0.0000000000E+00  -2.2116902863E+01   2.2116902863E+01   0.0000000000E+00     0.000   1.
   25    2    1    2    0    0   0.0000000000E+00   0.0000000000E+00   1.5450140686E+02   1.9873521259E+02   1.2500000000E+02  4.180E-10  -1.
3000002    2    3    0    0    0  -4.9093092116E+01   1.6346979469E+01   1.3066918052E+02   1.4089638097E+02   1.0000000000E+01  6.887E-10   1.
3000002    2    3    0    0    0   4.9093092116E+01  -1.6346979469E+01   2.3832226336E+01   5.7838831622E+01   1.0000000000E+01  8.152E-10   1.
3000001    1    4    0    0    0  -9.2893678492E+00   2.4814433424E-01   1.7202283952E+01   1.9577346700E+01   1.0000000000E+00     0.000   1.
3000022   2   4   0   0   0   -3.9803724266E+01   1.6098835134E+01   1.1346689657E+02   1.2131903427E+02   2.5000000000E-01   4.182831E+00   0.
3000001    1    5    0    0    0   2.5395965533E+01  -5.5831956440E+00   1.6444724462E+01   3.0782399218E+01   1.0000000000E+00     0.000  -1.
3000022   2   5   0   0   0   2.3697126583E+01   -1.0763783825E+01   7.3875018738E+00   2.7056432404E+01   2.5000000000E-01   1.537868E+01   0.
13    1    7    0    0    0  -2.9454036570E+01   1.1922450043E+01   8.4057695537E+01   8.9863186508E+01   1.0500000000E-01     0.000  -1.
-13    1    7    0    0    0  -1.0349687696E+01   4.1763850910E+00   2.9409201035E+01   3.1455847761E+01   1.0500000000E-01     0.000   1.
13    1    9    0    0    0   7.2658152136E+00  -3.3514695566E+00   2.2822333532E+00   8.3212999577E+00   1.0500000000E-01     0.000  -1.
-13    1    9    0    0    0   1.6431311369E+01  -7.4123142681E+00   5.1052685207E+00   1.8735132446E+01   1.0500000000E-01     0.000   1.
</event>
<event>
 13   1  9.2978750E-05  1.2500000E+02  7.5467720E-03  1.2380620E-01
   21   -1    0    0  502  501   0.0000000000E+00   0.0000000000E+00   2.8501299818E+01   2.8501299818E+01   0.0000000000E+00     0.000  -1.
   21   -1    0    0  501  502   0.0000000000E+00   0.0000000000E+00  -1.3705515274E+02   1.3705515274E+02   0.0000000000E+00     0.000  -1.
   25    2    1    2    0    0   0.0000000000E+00   0.0000000000E+00  -1.0855385292E+02   1.6555645256E+02   1.2500000000E+02  4.996E-08  -1.
3000002    2    3    0    0    0  -4.5999990069E+00   4.5247282704E+01  -1.0948882405E+02   1.1898016295E+02   1.0000000000E+01  1.203E-09  -1.
3000002    2    3    0    0    0   4.5999990069E+00  -4.5247282704E+01   9.3497113151E-01   4.6576289612E+01   1.0000000000E+01  6.149E-10  -1.
3000001    1    4    0    0    0   2.0092431279E-01   1.8250653289E+01  -5.5396943438E+01   5.8334792862E+01   1.0000000000E+00     0.000   1.
3000022   2   4   0   0   0   -4.8009233197E+00   2.6996629415E+01   -5.4091880614E+01   6.0645370086E+01   2.5000000000E-01   3.874048E+00   0.
3000001    1    5    0    0    0   7.6673423720E+00  -3.4219952356E+01   1.4882036586E+00   3.5114214051E+01   1.0000000000E+00     0.000   1.
3000022   2   5   0   0   0   -3.0673433652E+00   -1.1027330348E+01   -5.5323252707E-01   1.1462075560E+01   2.5000000000E-01   5.535382E-01   0.
13    1    7    0    0    0  -2.7232053315E+00   1.5397398286E+01  -3.0704391147E+01   3.4456732026E+01   1.0500000000E-01     0.000  -1.
-13    1    7    0    0    0  -2.0777179881E+00   1.1599231129E+01  -2.3387489467E+01   2.6188638059E+01   1.0500000000E-01     0.000   1.
13    1    9    0    0    0  -7.5634083537E-01  -2.7628211907E+00  -1.1468972193E-01   2.8686950210E+00   1.0500000000E-01     0.000   1.
-13    1    9    0    0    0  -2.3110025298E+00  -8.2645091572E+00  -4.3854280514E-01   8.5933805393E+00   1.0500000000E-01     0.000  -1.
</event>
<event>
 13   1  9.2978750E-05  1.2500000E+02  7.5467720E-03  1.2380620E-01
   21   -1    0    0  502  501   0.0000000000E+00   0.0000000000E+00   2.0423486388E+02   2.0423486388E+02   0.0000000000E+00     0.000  -1.
   21   -1    0    0  501  502   0.0000000000E+00   0.0000000000E+00  -1.9126264370E+01   1.9126264370E+01   0.0000000000E+00     0.000  -1.
   25    2    1    2    0    0   0.0000000000E+00   0.0000000000E+00   1.8510859951E+02   2.2336112825E+02   1.2500000000E+02  1.406E-07  -1.
3000002    2    3    0    0    0  -5.2943426290E+01  -3.0927266389E+01   8.0336916423E+01   1.0155551356E+02   1.0000000000E+01  4.029E-10  -1.
3000002    2    3    0    0    0   5.2943426290E+01   3.0927266389E+01   1.0477168309E+02   1.2180561469E+02   1.0000000000E+01  3.063E-10  -1.
3000001    1    4    0    0    0  -3.0601430319E+01  -1.4183567596E+01   5.0049177300E+01   6.0361753418E+01   1.0000000000E+00     0.000  -1.
3000022   2   4   0   0   0   -2.2341995971E+01   -1.6743698794E+01   3.0287739123E+01   4.1193760140E+01   2.5000000000E-01   4.334993E+00   0.
3000001    1    5    0    0    0   4.5033049114E+01   2.3903806279E+01   8.0021628293E+01   9.4888505426E+01   1.0000000000E+00     0.000  -1.
3000022   2   5   0   0   0   7.9103771756E+00   7.0234601103E+00   2.4750054794E+01   2.6917109267E+01   2.5000000000E-01   2.079417E-01   0.
13    1    7    0    0    0  -1.1361174721E+01  -8.4340039330E+00   1.5381055457E+01   2.0899679551E+01   1.0500000000E-01     0.000  -1.
-13    1    7    0    0    0  -1.0980821251E+01  -8.3096948606E+00   1.4906683666E+01   2.0294080588E+01   1.0500000000E-01     0.000   1.
13    1    9    0    0    0   3.9522969687E+00   3.5984012487E+00   1.2473875287E+01   1.3571209694E+01   1.0500000000E-01     0.000  -1.
-13    1    9    0    0    0   3.9580802068E+00   3.4250588616E+00   1.2276179507E+01   1.3345899573E+01   1.0500000000E-01     0.000   1.
</event>
<event>
 13   1  9.2978750E-05  1.2500000E+02  7.5467720E-03  1.2380620E-01
   21   -1    0    0  502  501   0.0000000000E+00   0.0000000000E+00   2.8599191327E+02   2.8599191327E+02   0.0000000000E+00     0.000   1.
   21   -1    0    0  501  502   0.0000000000E+00   0.0000000000E+00  -1.3658602984E+01   1.3658602984E+01   0.0000000000E+00     0.000   1.
   25    2    1    2    0    0   0.0000000000E+00   0.0000000000E+00   2.7233331028E+02   2.9965051625E+02   1.2500000000E+02  1.398E-08  -1.
3000002    2    3    0    0    0  -5.0252502857E+01  -1.1672167487E+01   5.5061177233E+01   7.6113643819E+01   1.0000000000E+01  5.116E-10   1.
3000002    2    3    0    0    0   5.0252502857E+01   1.1672167487E+01   2.1727213305E+02   2.2353687243E+02   1.0000000000E+01  5.879E-10   1.
3000001    1    4    0    0    0  -7.1857062854E+00  -3.2258377501E+00   1.3544828777E+01   1.5700407339E+01   1.0000000000E+00     0.000  -1.
3000022   2   4   0   0   0   -4.3066796571E+01   -8.4463297372E+00   4.1516348455E+01   6.0413236480E+01   2.5000000000E-01   7.387596E+00   0.
3000001    1    5    0    0    0   8.9437866480E-01  -4.4888919867E-01   2.9637687793E+00   3.2841041527E+00   1.0000000000E+00     0.000  -1.
3000022   2   5   0   0   0   4.9358124192E+01   1.2121056686E+01   2.1430836427E+02   2.2025276828E+02   2.5000000000E-01   4.629354E+00   0.
13    1    7    0    0    0  -1.3262692160E+01  -2.5783483057E+00   1.2839644640E+01   1.8639055309E+01   1.0500000000E-01     0.000   1.
-13    1    7    0    0    0  -2.9804104411E+01  -5.8679814315E+00   2.8676703815E+01   4.1774181172E+01   1.0500000000E-01     0.000  -1.
13    1    9    0    0    0   2.3612782519E+01   5.8675109480E+00   1.0263785281E+02   1.0548237312E+02   1.0500000000E-01     0.000   1.
-13    1    9    0    0    0   2.5745341673E+01   6.2535457381E+00   1.1167051145E+02   1.1477039516E+02   1.0500000000E-01     0.000  -1.
</event>
<event>
 13   1  9.2978750E-05  1.2500000E+02  7.5467720E-03  1.2380620E-01
   21   -1    0    0  502  501   0.0000000000E+00   0.0000000000E+00   3.6059247383E+02   3.6059247383E+02   0.0000000000E+00     0.000   1.
   21   -1    0    0  501  502   0.0000000000E+00   0.0000000000E+00  -1.0832866140E+01   1.0832866140E+01   0.0000000000E+00     0.000   1.
   25    2    1    2    0    0   0.0000000000E+00   0.0000000000E+00   3.4975960769E+02   3.7142533997E+02   1.2500000000E+02  3.359E-08  -1.
3000002    2    3    0    0    0   2.6112895540E+01   4.1476622003E+01   6.3539138849E+01   8.0866653522E+01   1.0000000000E+01  8.289E-10  -1.
3000002    2    3    0    0    0  -2.6112895540E+01  -4.1476622003E+01   2.8622046884E+02   2.9055868645E+02   1.0000000000E+01  1.376E-10  -1.
3000001    1    4    0    0    0   1.7270039746E+01   3.3951521708E+01   4.4720818160E+01   5.8752971636E+01   1.0000000000E+00     0.000   1.
3000022   2   4   0   0   0   8.8428557941E+00   7.5251002952E+00   1.8818320689E+01   2.2113681887E+01   2.5000000000E-01   1.436805E-02   0.
3000001    1    5    0    0    0  -1.1939585188E+01  -1.2054999859E+01   8.1946256857E+01   8.3690296504E+01   1.0000000000E+00     0.000  -1.
3000022   2   5   0   0   0   -1.4173310352E+01   -2.9421622145E+01   2.0427421198E+02   2.0686838994E+02   2.5000000000E-01   4.374023E-01   0.
13    1    7    0    0    0   3.4374756582E+00   2.9337997161E+00   7.4424282973E+00   8.7077082884E+00   1.0500000000E-01     0.000  -1.
-13    1    7    0    0    0   5.4053801358E+00   4.5913005791E+00   1.1375892391E+01   1.3405973598E+01   1.0500000000E-01     0.000   1.
13    1    9    0    0    0  -4.8257812609E+00  -1.0014187195E+01   6.9882089030E+01   7.0760790711E+01   1.0500000000E-01     0.000   1.
-13    1    9    0    0    0  -9.3475290912E+00  -1.9407434949E+01   1.3439212295E+02   1.3610759923E+02   1.0500000000E-01     0.000  -1.
</event>
<event>
 13   1  9.2978750E-05  1.2500000E+02  7.5467720E-03  1.2380620E-01
   21   -1    0    0  502  501   0.0000000000E+00   0.0000000000E+00   4.3418669846E+02   4.3418669846E+02   0.0000000000E+00     0.000  -1.
   21   -1    0    0  501  502   0.0000000000E+00   0.0000000000E+00  -8.9967058270E+00   8.9967058270E+00   0.0000000000E+00     0.000  -1.
   25    2    1    2    0    0   0.0000000000E+00   0.0000000000E+00   4.2518999263E+02   4.4318340428E+02   1.2500000000E+02  4.653E-08  -1.
3000002    2    3    0    0    0  -5.4320976241E+01  -5.2336923583E+00   1.1056867046E+02   1.2370768320E+02   1.0000000000E+01  6.536E-10   1.
3000002    2    3    0    0    0   5.4320976241E+01   5.2336923583E+00   3.1462132217E+02   3.1947572108E+02   1.0000000000E+01  1.489E-09   1.
3000001    1    4    0    0    0  -2.3841126713E+01  -7.1870384923E+00   5.1199355115E+01   5.6942311240E+01   1.0000000000E+00     0.000   1.
3000022   2   4   0   0   0   -3.0479849528E+01   1.9533461340E+00   5.9369315347E+01   6.6765371961E+01   2.5000000000E-01   4.443491E+00   0.
3000001    1    5    0    0    0   3.1309055247E+01   1.1327813382E+00   2.0567173461E+02   2.0804663552E+02   1.0000000000E+00     0.000   1.
3000022   2   5   0   0   0   2.3011920994E+01   4.1009110200E+00   1.0894958756E+02   1.1142908556E+02   2.5000000000E-01   3.308164E-02   0.
13    1    7    0    0    0  -2.1576791883E+01   1.3900821272E+00   4.2121724090E+01   4.7347026745E+01   1.0500000000E-01     0.000   1.
-13    1    7    0    0    0  -8.9030576449E+00   5.6326400689E-01   1.7247591256E+01   1.9418345216E+01   1.0500000000E-01     0.000  -1.
13    1    9    0    0    0   6.0701988498E+00   1.0662335875E+00   2.8588426705E+01   2.9245398520E+01   1.0500000000E-01     0.000   1.
-13    1    9    0    0    0   1.6941722145E+01   3.0346774326E+00   8.0361160853E+01   8.2183687037E+01   1.0500000000E-01     0.000  -1.
</event>
<event>
 13   1  9.2978750E-05  1.2500000E+02  7.5467720E-03  1.2380620E-01
   21   -1    0    0  502  501   0.0000000000E+00   0.0000000000E+00   2.4763344089E+02   2.4763344089E+02   0.0000000000E+00     0.000  -1.
   21   -1    0    0  501  502   0.0000000000E+00   0.0000000000E+00  -1.5774323476E+01   1.5774323476E+01   0.0000000000E+00     0.000  -1.
   25    2    1    2    0    0   0.0000000000E+00   0.0000000000E+00   2.3185911741E+02   2.6340776437E+02   1.2500000000E+02  6.307E-08  -1.
3000002    2    3    0    0    0   1.3803628299E+01   5.3797589534E+01   5.9325767903E+01   8.1879591665E+01   1.0000000000E+01  1.327E-09   1.
3000002    2    3    0    0    0  -1.3803628299E+01  -5.3797589534E+01   1.7253334951E+02   1.8152817271E+02   1.0000000000E+01  3.568E-10   1.
3000001    1    4    0    0    0   2.7460129247E+00   2.2118370387E+01   1.8133530051E+01   2.8750440129E+01   1.0000000000E+00     0.000   1.
3000022   2   4   0   0   0   1.1057615374E+01   3.1679219147E+01   4.1192237853E+01   5.3129151535E+01   2.5000000000E-01   1.566573E+01   0.
3000001    1    5    0    0    0  -1.1268534758E+01  -4.1400152779E+01   1.4513721767E+02   1.5134980832E+02   1.0000000000E+00     0.000   1.
3000022   2   5   0   0   0   -2.5350935404E+00   -1.2397436754E+01   2.7396131839E+01   3.0178364387E+01   2.5000000000E-01   7.900965E-02   0.
13    1    7    0    0    0   8.5033509095E+00   2.4334892546E+01   3.1637522136E+01   4.0809775837E+01   1.0500000000E-01     0.000  -1.
-13    1    7    0    0    0   2.5542644643E+00   7.3443266008E+00   9.5547157168E+00   1.2319375698E+01   1.0500000000E-01     0.000   1.
13    1    9    0    0    0  -1.2976576660E+00  -6.1660267842E+00   1.3778782931E+01   1.5151557206E+01   1.0500000000E-01     0.000   1.
-13    1    9    0    0    0  -1.2374358744E+00  -6.2314099700E+00   1.3617348908E+01   1.5026807180E+01   1.0500000000E-01     0.000  -1.
</event>
<event>
 13   1  9.2978750E-05  1.2500000E+02  7.5467720E-03  1.2380620E-01
   21   -1    0    0  502  501   0.0000000000E+00   0.0000000000E+00   1.3706915092E+02   1.3706915092E+02   0.0000000000E+00     0.000  -1.
   21   -1    0    0  501  502   0.0000000000E+00   0.0000000000E+00  -2.8498389125E+01   2.8498389125E+01   0.0000000000E+00     0.000  -1.
   25    2    1    2    0    0   0.0000000000E+00   0.0000000000E+00   1.0857076180E+02   1.6556754005E+02   1.2500000000E+02  5.574E-08  -1.
3000002    2    3    0    0    0  -3.5497822486E+01   1.9880948966E+01   1.1571467745E+02   1.2306597462E+02   1.0000000000E+01  6.661E-10   1.
3000002    2    3    0    0    0   3.5497822486E+01  -1.9880948966E+01  -7.1439156471E+00   4.2501565428E+01   1.0000000000E+01  6.868E-10   1.
3000001    1    4    0    0    0  -9.3351639218E+00   7.4637209900E+00   4.6817507601E+01   4.8329405484E+01   1.0000000000E+00     0.000  -1.
3000022   2   4   0   0   0   -2.6162658564E+01   1.2417227976E+01   6.8897169846E+01   7.4736569138E+01   2.5000000000E-01   5.912260E+00   0.
3000001    1    5    0    0    0   2.7123302379E+01  -1.2649772180E+01  -9.0256646705E+00   3.1275435902E+01   1.0000000000E+00     0.000   1.
3000022   2   5   0   0   0   8.3745201077E+00   -7.2311767856E+00   1.8817490235E+00   1.1226129526E+01   2.5000000000E-01   1.917438E+00   0.
13    1    7    0    0    0  -1.5395036077E+01   7.2453928017E+00   4.0562130276E+01   4.3986364821E+01   1.0500000000E-01     0.000   1.
-13    1    7    0    0    0  -1.0767622488E+01   5.1718351739E+00   2.8335039570E+01   3.0750204317E+01   1.0500000000E-01     0.000  -1.
13    1    9    0    0    0   5.8127774356E+00  -4.9798838434E+00   1.2633812056E+00   7.7585296082E+00   1.0500000000E-01     0.000   1.
-13    1    9    0    0    0   2.5617426721E+00  -2.2512929421E+00   6.1836781789E-01   3.4675999174E+00   1.0500000000E-01     0.000  -1.
</event>
<event>
 13   1  9.2978750E-05  1.2500000E+02  7.5467720E-03  1.2380620E-01
   21   -1    0    0  502  501   0.0000000000E+00   0.0000000000E+00   1.4762587181E+01   1.4762587181E+01   0.0000000000E+00     0.000  -1.
   21   -1    0    0  501  502   0.0000000000E+00   0.0000000000E+00  -2.6460470323E+02   2.6460470323E+02   0.0000000000E+00     0.000  -1.
   25    2    1    2    0    0   0.0000000000E+00   0.0000000000E+00  -2.4984211605E+02   2.7936729041E+02   1.2500000000E+02  8.859E-08  -1.
3000002    2    3    0    0    0   3.3710527684E+01   3.3301463073E+01  -3.6623657357E+01   6.0718031900E+01   1.0000000000E+01  2.160E-10   1.
3000002    2    3    0    0    0  -3.3710527684E+01  -3.3301463073E+01  -2.1321845869E+02   2.1864925851E+02   1.0000000000E+01  4.926E-10   1.
3000001    1    4    0    0    0   3.4596130698E+00   8.6977062769E+00  -6.4156034173E+00   1.1392057948E+01   1.0000000000E+00     0.000   1.
3000022   2   4   0   0   0   3.0250914614E+01   2.4603756796E+01   -3.0208053939E+01   4.9325973952E+01   2.5000000000E-01   3.992889E+00   0.
3000001    1    5    0    0    0  -3.2088682062E+01  -3.2807998934E+01  -1.9408868525E+02   1.9944288920E+02   1.0000000000E+00     0.000  -1.
3000022   2   5   0   0   0   -1.6218456223E+00   -4.9346413958E-01   -1.9129773443E+01   1.9206369310E+01   2.5000000000E-01   3.159150E+00   0.
13    1    7    0    0    0   1.7717874864E+01   1.4336627201E+01  -1.7694206873E+01   2.8854080319E+01   1.0500000000E-01     0.000  -1.
-13    1    7    0    0    0   1.2533039750E+01   1.0267129596E+01  -1.2513847067E+01   2.0471893633E+01   1.0500000000E-01     0.000   1.
13    1    9    0    0    0  -9.1613513370E-01  -3.3883062471E-01  -1.1318031298E+01   1.1360588332E+01   1.0500000000E-01     0.000   1.
-13    1    9    0    0    0  -7.0571048857E-01  -1.5463351488E-01  -7.8117421450E+00   7.8457809782E+00   1.0500000000E-01     0.000  -1.
</event>
<event>
 13   1  9.2978750E-05  1.2500000E+02  7.5467720E-03  1.2380620E-01
   21   -1    0    0  502  501   0.0000000000E+00   0.0000000000E+00   2.0278832724E+01   2.0278832724E+01   0.0000000000E+00     0.000  -1.
   21   -1    0    0  501  502   0.0000000000E+00   0.0000000000E+00  -1.9262696493E+02   1.9262696493E+02   0.0000000000E+00     0.000  -1.
   25    2    1    2    0    0   0.0000000000E+00   0.0000000000E+00  -1.7234813221E+02   2.1290579766E+02   1.2500000000E+02  1.784E-08  -1.
3000002    2    3    0    0    0  -3.4329333357E+01   3.9934139303E+01  -1.4091724713E+02   1.5076773245E+02   1.0000000000E+01  5.619E-10   1.
3000002    2    3    0    0    0   3.4329333357E+01  -3.9934139303E+01  -3.1430885080E+01   6.2138065206E+01   1.0000000000E+01  1.226E-09   1.
3000001    1    4    0    0    0  -3.3666632751E+01   4.0094784850E+01  -1.4047474325E+02   1.4991726860E+02   1.0000000000E+00     0.000   1.
3000022   2   4   0   0   0   -6.6270060628E-01   -1.6064554684E-01   -4.4250387991E-01   8.5046385521E-01   2.5000000000E-01   8.256911E-01   0.
3000001    1    5    0    0    0   2.6029277247E+01  -2.5239888134E+01  -2.5112740762E+01   4.4116039890E+01   1.0000000000E+00     0.000  -1.
3000022   2   5   0   0   0   8.3000561104E+00   -1.4694251169E+01   -6.3181443178E+00   1.8022025316E+01   2.5000000000E-01   3.238019E+00   0.
13    1    7    0    0    0  -4.6230078766E-01  -6.1686815853E-02  -2.6772063009E-01   5.4792939079E-01   1.0500000000E-01     0.000   1.
-13    1    7    0    0    0  -2.0039981863E-01  -9.8958730989E-02  -1.7478324983E-01   3.0253446443E-01   1.0500000000E-01     0.000  -1.
13    1    9    0    0    0   4.5696865489E+00  -8.0911984658E+00  -3.5499632883E+00   9.9480044289E+00   1.0500000000E-01     0.000   1.
-13    1    9    0    0    0   3.7303695615E+00  -6.6030527037E+00  -2.7681810295E+00   8.0740208871E+00   1.0500000000E-01     0.000  -1.
</event>
<event>
 13   1  9.2978750E-05  1.2500000E+02  7.5467720E-03  1.2380620E-01
   21   -1    0    0  502  501   0.0000000000E+00   0.0000000000E+00   1.9668480865E+01   1.9668480865E+01   0.0000000000E+00     0.000   1.
   21   -1    0    0  501  502   0.0000000000E+00   0.0000000000E+00  -1.9860456061E+02   1.9860456061E+02   0.0000000000E+00     0.000   1.
   25    2    1    2    0    0   0.0000000000E+00   0.0000000000E+00  -1.7893607974E+02   2.1827304147E+02   1.2500000000E+02  8.259E-09  -1.
3000002    2    3    0    0    0  -3.5957204703E+01   4.5417263223E+01  -1.2653495698E+02   1.3952327299E+02   1.0000000000E+01  1.046E-09   1.
3000002    2    3    0    0    0   3.5957204703E+01  -4.5417263223E+01  -5.2401122760E+01   7.8749768477E+01   1.0000000000E+01  8.050E-10   1.
3000001    1    4    0    0    0  -2.6850932497E+01   3.1669215415E+01  -9.9987196170E+01   1.0826980733E+02   1.0000000000E+00     0.000   1.
3000022   2   4   0   0   0   -9.1062722058E+00   1.3748047808E+01   -2.6547760810E+01   3.1253465664E+01   2.5000000000E-01   7.043650E+00   0.
3000001    1    5    0    0    0   5.7172606371E+00  -3.1618892175E+00  -8.1933182242E+00   1.0526873997E+01   1.0000000000E+00     0.000  -1.
3000022   2   5   0   0   0   3.0239944065E+01   -4.2255374006E+01   -4.4207804536E+01   6.8222894481E+01   2.5000000000E-01   1.223675E+01   0.
13    1    7    0    0    0  -4.7842915431E+00   7.1492140447E+00  -1.3950828638E+01   1.6390160210E+01   1.0500000000E-01     0.000  -1.
-13    1    7    0    0    0  -4.3219806627E+00   6.5988337638E+00  -1.2596932172E+01   1.4863305454E+01   1.0500000000E-01     0.000   1.
13    1    9    0    0    0   1.5024426318E+01  -2.0905852861E+01  -2.1961194325E+01   3.3839225039E+01   1.0500000000E-01     0.000  -1.
-13    1    9    0    0    0   1.5215517747E+01  -2.1349521145E+01  -2.2246610210E+01   3.4383669442E+01   1.0500000000E-01     0.000   1.
</event>
<event>
 13   1  9.2978750E-05  1.2500000E+02  7.5467720E-03  1.2380620E-01
   21   -1    0    0  502  501   0.0000000000E+00   0.0000000000E+00   3.2819933882E+01   3.2819933882E+01   0.0000000000E+00     0.000  -1.
   21   -1    0    0  501  502   0.0000000000E+00   0.0000000000E+00  -1.1902065416E+02   1.1902065416E+02   0.0000000000E+00     0.000  -1.
   25    2    1    2    0    0   0.0000000000E+00   0.0000000000E+00  -8.6200720276E+01   1.5184058804E+02   1.2500000000E+02  6.425E-08  -1.
3000002    2    3    0    0    0   3.8167275933E+01  -3.3533927347E+01  -5.8525987111E-01   5.1784242435E+01   1.0000000000E+01  4.488E-10  -1.
3000002    2    3    0    0    0  -3.8167275933E+01   3.3533927347E+01  -8.5615460405E+01   1.0005634560E+02   1.0000000000E+01  3.879E-10  -1.
3000001    1    4    0    0    0   2.4271384751E+01  -1.6470320594E+01  -3.6086435462E+00   2.9570151952E+01   1.0000000000E+00     0.000  -1.
3000022   2   4   0   0   0   1.3895891182E+01   -1.7063606753E+01   3.0233836751E+00   2.2214090484E+01   2.5000000000E-01   1.281289E+01   0.
3000001    1    5    0    0    0  -4.2486694764E+00   7.9907472821E+00  -1.1868793200E+01   1.4958993498E+01   1.0000000000E+00     0.000   1.
3000022   2   5   0   0   0   -3.3918606457E+01   2.5543180065E+01   -7.3746667205E+01   8.5097352107E+01   2.5000000000E-01   5.709077E-01   0.
13    1    7    0    0    0   3.6216939599E+00  -4.4905692216E+00   8.1069462053E-01   5.8266739947E+00   1.0500000000E-01     0.000   1.
-13    1    7    0    0    0   1.0274197222E+01  -1.2573037531E+01   2.2126890546E+00   1.6387416489E+01   1.0500000000E-01     0.000  -1.
13    1    9    0    0    0  -1.6464072781E+01   1.2403633741E+01  -3.5666345864E+01   4.1194842818E+01   1.0500000000E-01     0.000   1.
-13    1    9    0    0    0  -1.7454533675E+01   1.3139546324E+01  -3.8080321342E+01   4.3902509289E+01   1.0500000000E-01     0.000  -1.
</event>
<event>
 13   1  9.2978750E-05  1.2500000E+02  7.5467720E-03  1.2380620E-01
   21   -1    0    0  502  501   0.0000000000E+00   0.0000000000E+00   6.9047250618E+01   6.9047250618E+01   0.0000000000E+00     0.000  -1.
   21   -1    0    0  501  502   0.0000000000E+00   0.0000000000E+00  -5.6573577732E+01   5.6573577732E+01   0.0000000000E+00     0.000  -1.
   25    2    1    2    0    0   0.0000000000E+00   0.0000000000E+00   1.2473672885E+01   1.2562082835E+02   1.2500000000E+02  4.938E-08  -1.
3000002    2    3    0    0    0  -4.5695849346E+01   2.6116451880E+01   3.8584748274E+01   6.6022439410E+01   1.0000000000E+01  2.466E-10  -1.
3000002    2    3    0    0    0   4.5695849346E+01  -2.6116451880E+01  -2.6111075389E+01   5.9598388940E+01   1.0000000000E+01  1.320E-09  -1.
3000001    1    4    0    0    0  -3.1359416599E+01   1.3657826774E+01   2.8400018709E+01   4.4469206248E+01   1.0000000000E+00     0.000  -1.
3000022   2   4   0   0   0   -1.4336432747E+01   1.2458625105E+01   1.0184729565E+01   2.1553233162E+01   2.5000000000E-01   2.234585E+00   0.
3000001    1    5    0    0    0   2.6740888710E+01  -2.0530986541E+01  -1.8058564764E+01   3.8258440881E+01   1.0000000000E+00     0.000  -1.
3000022   2   5   0   0   0   1.8954960636E+01   -5.5854653387E+00   -8.0525106257E+00   2.1339948059E+01   2.5000000000E-01   3.123706E+00   0.
13    1    7    0    0    0  -8.5336189358E+00   7.3613089075E+00   6.0981149509E+00   1.2814427491E+01   1.0500000000E-01     0.000   1.
-13    1    7    0    0    0  -5.8028138112E+00   5.0973161977E+00   4.0866146143E+00   8.7388056709E+00   1.0500000000E-01     0.000  -1.
13    1    9    0    0    0   5.9461001267E+00  -1.7749774175E+00  -2.4811220112E+00   6.6838344521E+00   1.0500000000E-01     0.000   1.
-13    1    9    0    0    0   1.3008860509E+01  -3.8104879212E+00  -5.5713886145E+00   1.4656113606E+01   1.0500000000E-01     0.000  -1.
</event>
<event>
 13   1  9.2978750E-05  1.2500000E+02  7.5467720E-03  1.2380620E-01
   21   -1    0    0  502  501   0.0000000000E+00   0.0000000000E+00   5.4220677987E+01   5.4220677987E+01   0.0000000000E+00     0.000  -1.
   21   -1    0    0  501  502   0.0000000000E+00   0.0000000000E+00  -7.2043547684E+01   7.2043547684E+01   0.0000000000E+00     0.000  -1.
   25    2    1    2    0    0   0.0000000000E+00   0.0000000000E+00  -1.7822869698E+01   1.2626422567E+02   1.2500000000E+02  5.377E-08  -1.
3000002    2    3    0    0    0  -2.0430337169E+01   3.2615985314E+01  -5.7617870098E+01   7.0007286260E+01   1.0000000000E+01  1.666E-09  -1.
3000002    2    3    0    0    0   2.0430337169E+01  -3.2615985314E+01   3.9795000400E+01   5.6256939410E+01   1.0000000000E+01  1.515E-09  -1.
3000001    1    4    0    0    0  -1.9521607894E+00   9.1413945017E+00  -9.4717855134E+00   1.3345064481E+01   1.0000000000E+00     0.000   1.
3000022   2   4   0   0   0   -1.8478176380E+01   2.3474590813E+01   -4.8146084585E+01   5.6662221780E+01   2.5000000000E-01   1.269663E+00   0.
3000001    1    5    0    0    0   7.5310997563E+00  -1.8299293092E+01   1.4990709247E+01   2.4845582201E+01   1.0000000000E+00     0.000  -1.
3000022   2   5   0   0   0   1.2899237413E+01   -1.4316692222E+01   2.4804291154E+01   3.1411357208E+01   2.5000000000E-01   6.583257E+00   0.
13    1    7    0    0    0  -8.8201005621E+00   1.1128290798E+01  -2.2975418221E+01   2.7009514942E+01   1.0500000000E-01     0.000  -1.
-13    1    7    0    0    0  -9.6580758176E+00   1.2346300014E+01  -2.5170666364E+01   2.9652706837E+01   1.0500000000E-01     0.000   1.
13    1    9    0    0    0   4.3366359456E+00  -4.7416041306E+00   8.3102417701E+00   1.0505254130E+01   1.0500000000E-01     0.000   1.
-13    1    9    0    0    0   8.5626014672E+00  -9.5750880916E+00   1.6494049384E+01   2.0906103078E+01   1.0500000000E-01     0.000  -1.
</event>
<event>
 13   1  9.2978750E-05  1.2500000E+02  7.5467720E-03  1.2380620E-01
   21   -1    0    0  502  501   0.0000000000E+00   0.0000000000E+00   2.7830912610E+02   2.7830912610E+02   0.0000000000E+00     0.000   1.
   21   -1    0    0  501  502   0.0000000000E+00   0.0000000000E+00  -1.4035651848E+01   1.4035651848E+01   0.0000000000E+00     0.000   1.
   25    2    1    2    0    0   0.0000000000E+00   0.0000000000E+00   2.6427347425E+02   2.9234477795E+02   1.2500000000E+02  6.915E-09  -1.
3000002    2    3    0    0    0   3.2380123198E+01   4.4151636068E+01   1.9863362832E+02   2.0628416722E+02   1.0000000000E+01  8.878E-10   1.
3000002    2    3    0    0    0  -3.2380123198E+01  -4.4151636068E+01   6.5639845933E+01   8.6060610734E+01   1.0000000000E+01  1.045E-09   1.
3000001    1    4    0    0    0   2.5491896645E+01   4.0086911411E+01   1.6450119224E+02   1.7122628160E+02   1.0000000000E+00     0.000   1.
3000022   2   4   0   0   0   6.8882265524E+00   4.0647246567E+00   3.4132436073E+01   3.5057885615E+01   2.5000000000E-01   3.454511E+00   0.
3000001    1    5    0    0    0  -1.0697227131E+01  -9.5017346518E+00   2.2043537964E+01   2.6298882023E+01   1.0000000000E+00     0.000  -1.
3000022   2   5   0   0   0   -2.1682896067E+01   -3.4649901416E+01   4.3596307969E+01   5.9761728711E+01   2.5000000000E-01   3.558193E+00   0.
13    1    7    0    0    0   2.4232866958E+00   1.4274991539E+00   1.2256060098E+01   1.2575058901E+01   1.0500000000E-01     0.000  -1.
-13    1    7    0    0    0   4.4649398566E+00   2.6372255028E+00   2.1876375975E+01   2.2482826715E+01   1.0500000000E-01     0.000   1.
13    1    9    0    0    0  -8.7968076211E+00  -1.4103953632E+01   1.7643366558E+01   2.4240559830E+01   1.0500000000E-01     0.000   1.
-13    1    9    0    0    0  -1.2886088446E+01  -2.0545947784E+01   2.5952941411E+01   3.5521168881E+01   1.0500000000E-01     0.000  -1.
</event>
<event>
 13   1  9.2978750E-05  1.2500000E+02  7.5467720E-03  1.2380620E-01
   21   -1    0    0  502  501   0.0000000000E+00   0.0000000000E+00   4.1813423711E+01   4.1813423711E+01   0.0000000000E+00     0.000  -1.
   21   -1    0    0  501  502   0.0000000000E+00   0.0000000000E+00  -9.3420955601E+01   9.3420955601E+01   0.0000000000E+00     0.000  -1.
   25    2    1    2    0    0   0.0000000000E+00   0.0000000000E+00  -5.1607531891E+01   1.3523437931E+02   1.2500000000E+02  7.093E-09  -1.
3000002    2    3    0    0    0  -4.5161449857E+01  -2.9020989224E+01   7.0908509632E+00   5.5064094800E+01   1.0000000000E+01  2.435E-10   1.
3000002    2    3    0    0    0   4.5161449857E+01   2.9020989224E+01  -5.8698382854E+01   8.0170284510E+01   1.0000000000E+01  4.463E-10   1.
3000001    1    4    0    0    0  -2.6792145775E+01  -2.2720780705E+01   5.5872026857E+00   3.5584684696E+01   1.0000000000E+00     0.000   1.
3000022   2   4   0   0   0   -1.8369304082E+01   -6.3002085193E+00   1.5036482776E+00   1.9479410104E+01   2.5000000000E-01   4.377911E+00   0.
3000001    1    5    0    0    0   1.4047779314E+00   2.9470407178E-01  -3.5042685674E-01   1.7841105651E+00   1.0000000000E+00     0.000   1.
3000022   2   5   0   0   0   4.3756671926E+01   2.8726285153E+01   -5.8347955997E+01   7.8386173945E+01   2.5000000000E-01   4.106461E+00   0.
13    1    7    0    0    0  -6.6017102247E+00  -2.2164769638E+00   5.7554406331E-01   6.9883920891E+00   1.0500000000E-01     0.000  -1.
-13    1    7    0    0    0  -1.1767593857E+01  -4.0837315555E+00   9.2810421425E-01   1.2491018015E+01   1.0500000000E-01     0.000   1.
13    1    9    0    0    0   1.9100197008E+01   1.2461600432E+01  -2.5405345809E+01   3.4140176211E+01   1.0500000000E-01     0.000  -1.
-13    1    9    0    0    0   2.4656474918E+01   1.6264684721E+01  -3.2942610189E+01   4.4245997734E+01   1.0500000000E-01     0.000   1.
</event>
<event>
 13   1  9.2978750E-05  1.2500000E+02  7.5467720E-03  1.2380620E-01
   21   -1    0    0  502  501   0.0000000000E+00   0.0000000000E+00   3.2436444633E+02   3.2436444633E+02   0.0000000000E+00     0.000   1.
   21   -1    0    0  501  502   0.0000000000E+00   0.0000000000E+00  -1.2042781027E+01   1.2042781027E+01   0.0000000000E+00     0.000   1.
   25    2    1    2    0    0   0.0000000000E+00   0.0000000000E+00   3.1232166531E+02   3.3640722736E+02   1.2500000000E+02  7.978E-08  -1.
3000002    2    3    0    0    0   3.6314678860E+01   7.6015856746E+00   2.8881855139E+02   2.9136351116E+02   1.0000000000E+01  3.215E-10  -1.
3000002    2    3    0    0    0  -3.6314678860E+01  -7.6015856746E+00   2.3503113917E+01   4.5043716202E+01   1.0000000000E+01  1.553E-10  -1.
3000001    1    4    0    0    0   2.9629685076E+01   9.7539651025E+00   2.4604397862E+02   2.4801551865E+02   1.0000000000E+00     0.000  -1.
3000022   2   4   0   0   0   6.6849937844E+00   -2.1523794279E+00   4.2774572769E+01   4.3347992510E+01   2.5000000000E-01   1.871097E-02   0.
3000001    1    5    0    0    0  -3.2982751760E+01  -7.1481472459E+00   1.7191988560E+01   3.7888288341E+01   1.0000000000E+00     0.000  -1.
3000022   2   5   0   0   0   -3.3319270998E+00   -4.5343842868E-01   6.3111253570E+00   7.1554278613E+00   2.5000000000E-01   2.242231E+00   0.
13    1    7    0    0    0   4.0862152640E+00  -1.3229584122E+00   2.6532620132E+01   2.6878212928E+01   1.0500000000E-01     0.000  -1.
-13    1    7    0    0    0   2.5987785205E+00  -8.2942101572E-01   1.6241952636E+01   1.6469779581E+01   1.0500000000E-01     0.000   1.
13    1    9    0    0    0  -2.1434172934E+00  -2.4552889516E-01   3.9678931741E+00   4.5177121835E+00   1.0500000000E-01     0.000  -1.
-13    1    9    0    0    0  -1.1885098064E+00  -2.0790953352E-01   2.3432321829E+00   2.6377156778E+00   1.0500000000E-01     0.000   1.
</event>
<event>
 13   1  9.2978750E-05  1.2500000E+02  7.5467720E-03  1.2380620E-01
   21   -1    0    0  502  501   0.0000000000E+00   0.0000000000E+00   4.5070571072E+02   4.5070571072E+02   0.0000000000E+00     0.000  -1.
   21   -1    0    0  501  502   0.0000000000E+00   0.0000000000E+00  -8.6669636242E+00   8.6669636242E+00   0.0000000000E+00     0.000  -1.
   25    2    1    2    0    0   0.0000000000E+00   0.0000000000E+00   4.4203874709E+02   4.5937267434E+02   1.2500000000E+02  8.584E-08  -1.
3000002    2    3    0    0    0   2.9777750636E+00  -2.7532423843E+01   4.2362215083E+02   4.2464411945E+02   1.0000000000E+01  8.889E-10  -1.
3000002    2    3    0    0    0  -2.9777750636E+00   2.7532423843E+01   1.8416596255E+01   3.4728554888E+01   1.0000000000E+01  2.902E-11  -1.
3000001    1    4    0    0    0   3.0350638127E+00  -9.5611068332E+00   9.5626978913E+01   9.6156879485E+01   1.0000000000E+00     0.000   1.
3000022   2   4   0   0   0   -5.7288749090E-02   -1.7971317010E+01   3.2799517192E+02   3.2848723997E+02   2.5000000000E-01   3.712306E+01   0.
3000001    1    5    0    0    0   3.2845841328E+00   1.0126842969E+01   4.6079375437E+00   1.1643647618E+01   1.0000000000E+00     0.000   1.
3000022   2   5   0   0   0   -6.2623591965E+00   1.7405580874E+01   1.3808658711E+01   2.3084907270E+01   2.5000000000E-01   1.537719E+00   0.
13    1    7    0    0    0  -3.2687271932E-02  -6.4632621376E+00   1.1900843475E+02   1.1918386381E+02   1.0500000000E-01     0.000  -1.
-13    1    7    0    0    0  -2.4601477158E-02  -1.1508054872E+01   2.0898673717E+02   2.0930337615E+02   1.0500000000E-01     0.000   1.
13    1    9    0    0    0  -3.3592943568E+00   9.2984130007E+00   7.4626350377E+00   1.2387384293E+01   1.0500000000E-01     0.000   1.
-13    1    9    0    0    0  -2.9030648397E+00   8.1071678729E+00   6.3460236736E+00   1.0697522977E+01   1.0500000000E-01     0.000  -1.
</event>
<event>
 13   1  9.2978750E-05  1.2500000E+02  7.5467720E-03  1.2380620E-01
   21   -1    0    0  502  501   0.0000000000E+00   0.0000000000E+00   5.6127724576E+02   5.6127724576E+02   0.0000000000E+00     0.000   1.
   21   -1    0    0  501  502   0.0000000000E+00   0.0000000000E+00  -6.9595730621E+00   6.9595730621E+00   0.0000000000E+00     0.000   1.
   25    2    1    2    0    0   0.0000000000E+00   0.0000000000E+00   5.5431767270E+02   5.6823681882E+02   1.2500000000E+02  1.126E-08  -1.
3000002    2    3    0    0    0   3.7355763282E+01   4.2194382547E+01   3.9129890986E+02   3.9546258461E+02   1.0000000000E+01  2.732E-09   1.
3000002    2    3    0    0    0  -3.7355763282E+01  -4.2194382547E+01   1.6301876284E+02   1.7277423421E+02   1.0000000000E+01  3.387E-10   1.
3000001    1    4    0    0    0   1.2221212421E+01   1.0018230609E+01   8.6008279381E+01   8.7453685455E+01   1.0000000000E+00     0.000  -1.
3000022   2   4   0   0   0   2.5134550861E+01   3.2176151938E+01   3.0529063048E+02   3.0800889916E+02   2.5000000000E-01   7.020608E+00   0.
3000001    1    5    0    0    0  -2.5416986058E+01  -3.5043372097E+01   1.2170689885E+02   1.2918061130E+02   1.0000000000E+00     0.000   1.
3000022   2   5   0   0   0   -1.1938777224E+01   -7.1510104498E+00   4.1311863982E+01   4.3593622902E+01   2.5000000000E-01   2.881337E+00   0.
13    1    7    0    0    0   1.4584944141E+01   1.8566364879E+01   1.7659698244E+02   1.7816827925E+02   1.0500000000E-01     0.000   1.
-13    1    7    0    0    0   1.0549606720E+01   1.3609787059E+01   1.2869364804E+02   1.2984061990E+02   1.0500000000E-01     0.000  -1.
13    1    9    0    0    0  -7.5759888396E+00  -4.4695101798E+00   2.6136760436E+01   2.7577407406E+01   1.0500000000E-01     0.000  -1.
-13    1    9    0    0    0  -4.3627883846E+00  -2.6815002700E+00   1.5175103546E+01   1.6016215496E+01   1.0500000000E-01     0.000   1.
</event>
<event>
 13   1  9.2978750E-05  1.2500000E+02  7.5467720E-03  1.2380620E-01
   21   -1    0    0  502  501   0.0000000000E+00   0.0000000000E+00   4.0256762712E+02   4.0256762712E+02   0.0000000000E+00     0.000   1.
   21   -1    0    0  501  502   0.0000000000E+00   0.0000000000E+00  -9.7033386116E+00   9.7033386116E+00   0.0000000000E+00     0.000   1.
   25    2    1    2    0    0   0.0000000000E+00   0.0000000000E+00   3.9286428850E+02   4.1227096573E+02   1.2500000000E+02  2.917E-08  -1.
3000002    2    3    0    0    0  -5.4267508636E+00   1.2251136826E+01  -2.1906804016E+00   1.6862356274E+01   1.0000000000E+01  1.925E-10  -1.
3000002    2    3    0    0    0   5.4267508636E+00  -1.2251136826E+01   3.9505496890E+02   3.9540860946E+02   1.0000000000E+01  8.078E-11  -1.
3000001    1    4    0    0    0  -2.3407197808E+00  -3.4973919639E-01  -2.8911086893E+00   3.8677895562E+00   1.0000000000E+00     0.000   1.
3000022   2   4   0   0   0   -3.0860310828E+00   1.2600876023E+01   7.0042828772E-01   1.2994566717E+01   2.5000000000E-01   9.649542E-01   0.
3000001    1    5    0    0    0   4.0638685493E+00  -1.8469012265E+00   2.1452941518E+02   2.1457818168E+02   1.0000000000E+00     0.000  -1.
3000022   2   5   0   0   0   1.3628823143E+00   -1.0404235600E+01   1.8052555372E+02   1.8083042778E+02   2.5000000000E-01   4.355033E+00   0.
13    1    7    0    0    0  -1.5454020857E+00   6.1068698360E+00   3.8757933341E-01   6.3121604495E+00   1.0500000000E-01     0.000  -1.
-13    1    7    0    0    0  -1.5406289971E+00   6.4940061867E+00   3.1284895431E-01   6.6824062678E+00   1.0500000000E-01     0.000   1.
13    1    9    0    0    0   6.6517473028E-01  -5.0627732589E+00   8.9017367195E+01   8.9163764040E+01   1.0500000000E-01     0.000  -1.
-13    1    9    0    0    0   6.9770758403E-01  -5.3414623410E+00   9.1508186522E+01   9.1666663740E+01   1.0500000000E-01     0.000   1.
</event>
<event>
 13   1  9.2978750E-05  1.2500000E+02  7.5467720E-03  1.2380620E-01
   21   -1    0    0  502  501   0.0000000000E+00   0.0000000000E+00   1.0211917016E+02   1.0211917016E+02   0.0000000000E+00     0.000  -1.
   21   -1    0    0  501  502   0.0000000000E+00   0.0000000000E+00  -3.8251877622E+01   3.8251877622E+01   0.0000000000E+00     0.000  -1.
   25    2    1    2    0    0   0.0000000000E+00   0.0000000000E+00   6.3867292543E+01   1.4037104779E+02   1.2500000000E+02  6.171E-08  -1.
3000002    2    3    0    0    0  -6.9693285935E+00  -5.9522707750E+01   1.5478203829E+01   6.2698477435E+01   1.0000000000E+01  6.367E-10   1.
3000002    2    3    0    0    0   6.9693285935E+00   5.9522707750E+01   4.8389088714E+01   7.7672570355E+01   1.0000000000E+01  1.119E-09   1.
3000001    1    4    0    0    0   1.9876673005E+00  -4.6120869888E+00   1.3535097296E+00   5.2966174374E+00   1.0000000000E+00     0.000  -1.
3000022   2   4   0   0   0   -8.9569958940E+00   -5.4910620761E+01   1.4124694100E+01   5.7401859998E+01   2.5000000000E-01   2.460153E+00   0.
3000001    1    5    0    0    0   9.2363105048E+00   5.3524004592E+01   4.3814373959E+01   6.9791316542E+01   1.0000000000E+00     0.000   1.
3000022   2   5   0   0   0   -2.2669819112E+00   5.9987031584E+00   4.5747147542E+00   7.8812538122E+00   2.5000000000E-01   1.216039E-01   0.
13    1    7    0    0    0  -6.2551815230E+00  -3.8286839204E+01   9.8958683342E+00   4.0036840375E+01   1.0500000000E-01     0.000  -1.
-13    1    7    0    0    0  -2.7018143710E+00  -1.6623781557E+01   4.2288257656E+00   1.7365019623E+01   1.0500000000E-01     0.000   1.
13    1    9    0    0    0  -6.4644119158E-01   1.8398116488E+00   1.4052911224E+00   2.4059636855E+00   1.0500000000E-01     0.000  -1.
-13    1    9    0    0    0  -1.6205407197E+00   4.1588915096E+00   3.1694236318E+00   5.4752901266E+00   1.0500000000E-01     0.000   1.
</event>
<event>
 13   1  9.2978750E-05  1.2500000E+02  7.5467720E-03  1.2380620E-01
   21   -1    0    0  502  501   0.0000000000E+00   0.0000000000E+00   3.6018458214E+01   3.6018458214E+01   0.0000000000E+00     0.000  -1.
   21   -1    0    0  501  502   0.0000000000E+00   0.0000000000E+00  -1.0845133839E+02   1.0845133839E+02   0.0000000000E+00     0.000  -1.
   25    2    1    2    0    0   0.0000000000E+00   0.0000000000E+00  -7.2432880176E+01   1.4446979660E+02   1.2500000000E+02  5.119E-08  -1.
3000002    2    3    0    0    0   5.7204002219E+01   2.3049800181E+01  -3.8101014430E+01   7.3179768098E+01   1.0000000000E+01  1.873E-10  -1.
3000002    2    3    0    0    0  -5.7204002219E+01  -2.3049800181E+01  -3.4331865746E+01   7.1290028502E+01   1.0000000000E+01  2.954E-11  -1.
3000001    1    4    0    0    0   3.6421000297E+01   1.5808208585E+01  -2.9813880612E+01   4.9661415590E+01   1.0000000000E+00     0.000  -1.
3000022   2   4   0   0   0   2.0783001923E+01   7.2415915959E+00   -8.2871338174E+00   2.3518352507E+01   2.5000000000E-01   5.856841E+00   0.
3000001    1    5    0    0    0  -4.6051525350E+01  -2.2441002223E+01  -2.6879126599E+01   5.7860427017E+01   1.0000000000E+00     0.000  -1.
3000022   2   5   0   0   0   -1.1152476869E+01   -6.0879795793E-01   -7.4527391471E+00   1.3429601486E+01   2.5000000000E-01   1.628601E+00   0.
13    1    7    0    0    0   1.3955088411E+01   4.8547736730E+00  -5.6190407761E+00   1.5808161317E+01   1.0500000000E-01     0.000   1.
-13    1    7    0    0    0   6.8279135113E+00   2.3868179229E+00  -2.6680930412E+00   7.7101911903E+00   1.0500000000E-01     0.000  -1.
13    1    9    0    0    0  -6.8327677519E+00  -3.1118084717E-01  -4.5616492057E+00   8.2221175585E+00   1.0500000000E-01     0.000  -1.
-13    1    9    0    0    0  -4.3197091173E+00  -2.9761711076E-01  -2.8910899414E+00   5.2074839272E+00   1.0500000000E-01     0.000   1.
</event>
<event>
 13   1  9.2978750E-05  1.2500000E+02  7.5467720E-03  1.2380620E-01
   21   -1    0    0  502  501   0.0000000000E+00   0.0000000000E+00   3.2734634816E+02   3.2734634816E+02   0.0000000000E+00     0.000   1.
   21   -1    0    0  501  502   0.0000000000E+00   0.0000000000E+00  -1.1933079510E+01   1.1933079510E+01   0.0000000000E+00     0.000   1.
   25    2    1    2    0    0   0.0000000000E+00   0.0000000000E+00   3.1541326865E+02   3.3927942767E+02   1.2500000000E+02  4.018E-08  -1.
3000002    2    3    0    0    0  -4.4338646273E+01  -3.4498176503E+01   2.2691752281E+02   2.3398205464E+02   1.0000000000E+01  1.443E-09  -1.
3000002    2    3    0    0    0   4.4338646273E+01   3.4498176503E+01   8.8495745844E+01   1.0529737303E+02   1.0000000000E+01  5.839E-10  -1.
3000001    1    4    0    0    0  -4.0137857493E+00  -7.2019211742E+00   2.9414553528E+01   3.0564589051E+01   1.0000000000E+00     0.000  -1.
3000022   2   4   0   0   0   -4.0324860524E+01   -2.7296255329E+01   1.9750296928E+02   2.0341746558E+02   2.5000000000E-01   3.678587E+00   0.
3000001    1    5    0    0    0   2.6522249279E+01   2.6564265261E+01   5.7525085524E+01   6.8696618259E+01   1.0000000000E+00     0.000  -1.
3000022   2   5   0   0   0   1.7816396994E+01   7.9339112424E+00   3.0970660320E+01   3.6600754775E+01   2.5000000000E-01   7.647993E+00   0.
13    1    7    0    0    0  -1.9082002544E+01  -1.2982848017E+01   9.3444924056E+01   9.6253010449E+01   1.0500000000E-01     0.000   1.
-13    1    7    0    0    0  -2.1242857980E+01  -1.4313407311E+01   1.0405804522E+02   1.0716445514E+02   1.0500000000E-01     0.000  -1.
13    1    9    0    0    0   6.9175093833E+00   3.1400543781E+00   1.2119413414E+01   1.4303953442E+01   1.0500000000E-01     0.000  -1.
-13    1    9    0    0    0   1.0898887611E+01   4.7938568643E+00   1.8851246906E+01   2.2296801333E+01   1.0500000000E-01     0.000   1.
</event>
<event>
 13   1  9.2978750E-05  1.2500000E+02  7.5467720E-03  1.2380620E-01
   21   -1    0    0  502  501   0.0000000000E+00   0.0000000000E+00   4.8265102031E+02   4.8265102031E+02   0.0000000000E+00     0.000  -1.
   21   -1    0    0  501  502   0.0000000000E+00   0.0000000000E+00  -8.0933217494E+00   8.0933217494E+00   0.0000000000E+00     0.000  -1.
   25    2    1    2    0    0   0.0000000000E+00   0.0000000000E+00   4.7455769856E+02   4.9074434206E+02   1.2500000000E+02  4.943E-08  -1.
3000002    2    3    0    0    0   4.6426016794E+01   3.6871510873E+01   3.0429279803E+02   3.1017574096E+02   1.0000000000E+01  2.270E-09   1.
3000002    2    3    0    0    0  -4.6426016794E+01  -3.6871510873E+01   1.7026490053E+02   1.8056860110E+02   1.0000000000E+01  1.692E-10   1.
3000001    1    4    0    0    0   1.9665639893E+01   1.4410522532E+01   1.5042031308E+02   1.5238658451E+02   1.0000000000E+00     0.000   1.
3000022   2   4   0   0   0   2.6760376902E+01   2.2460988341E+01   1.5387248495E+02   1.5778915645E+02   2.5000000000E-01   8.170040E-01   0.
3000001    1    5    0    0    0  -1.8456289837E+01  -9.1462622959E+00   6.3989154811E+01   6.7230206619E+01   1.0000000000E+00     0.000   1.
3000022   2   5   0   0   0   -2.7969726957E+01   -2.7725248577E+01   1.0627574572E+02   1.1333839448E+02   2.5000000000E-01   1.062409E+00   0.
13    1    7    0    0    0   1.0015838119E+01   8.4184373706E+00   5.7357008105E+01   5.8830472586E+01   1.0500000000E-01     0.000   1.
-13    1    7    0    0    0   1.6744538783E+01   1.4042550970E+01   9.6515476846E+01   9.8958683867E+01   1.0500000000E-01     0.000  -1.
13    1    9    0    0    0  -9.3281356263E+00  -9.1835425813E+00   3.5241433199E+01   3.7594164540E+01   1.0500000000E-01     0.000   1.
-13    1    9    0    0    0  -1.8641591331E+01  -1.8541705996E+01   7.1034312523E+01   7.5744229940E+01   1.0500000000E-01     0.000  -1.
</event>
<event>
 13   1  9.2978750E-05  1.2500000E+02  7.5467720E-03  1.2380620E-01
   21   -1    0    0  502  501   0.0000000000E+00   0.0000000000E+00   1.1339405906E+02   1.1339405906E+02   0.0000000000E+00     0.000   1.
   21   -1    0    0  501  502   0.0000000000E+00   0.0000000000E+00  -3.4448453759E+01   3.4448453759E+01   0.0000000000E+00     0.000   1.
   25    2    1    2    0    0   0.0000000000E+00   0.0000000000E+00   7.8945605297E+01   1.4784251282E+02   1.2500000000E+02  1.091E-08  -1.
3000002    2    3    0    0    0   1.5155887651E+01   5.9765873846E+01   4.2006571303E+01   7.5274249513E+01   1.0000000000E+01  3.597E-10   1.
3000002    2    3    0    0    0  -1.5155887651E+01  -5.9765873846E+01   3.6939033994E+01   7.2568263307E+01   1.0000000000E+01  6.571E-10   1.
3000001    1    4    0    0    0   1.2073174043E+01   2.8591452893E+01   1.8962943413E+01   3.6384418820E+01   1.0000000000E+00     0.000   1.
3000022   2   4   0   0   0   3.0827136077E+00   3.1174420953E+01   2.3043627891E+01   3.8889830693E+01   2.5000000000E-01   9.543172E-01   0.
3000001    1    5    0    0    0  -1.3842580946E+01  -3.8004027773E+01   2.1188905466E+01   4.5671576380E+01   1.0000000000E+00     0.000   1.
3000022   2   5   0   0   0   -1.3133067046E+00   -2.1761846073E+01   1.5750128528E+01   2.6896686927E+01   2.5000000000E-01   3.108923E+00   0.
13    1    7    0    0    0   1.5116904653E+00   1.5623398444E+01   1.1619654299E+01   1.9529546283E+01   1.0500000000E-01     0.000   1.
-13    1    7    0    0    0   1.5710231425E+00   1.5551022510E+01   1.1423973591E+01   1.9360284410E+01   1.0500000000E-01     0.000  -1.
13    1    9    0    0    0  -7.5212545101E-01  -1.2326532368E+01   9.0020289005E+00   1.5282560068E+01   1.0500000000E-01     0.000   1.
-13    1    9    0    0    0  -5.6118125363E-01  -9.4353137053E+00   6.7480996277E+00   1.1614126859E+01   1.0500000000E-01     0.000  -1.
</event>
<event>
 13   1  9.2978750E-05  1.2500000E+02  7.5467720E-03  1.2380620E-01
   21   -1    0    0  502  501   0.0000000000E+00   0.0000000000E+00   3.3872340061E+01   3.3872340061E+01   0.0000000000E+00     0.000   1.
   21   -1    0    0  501  502   0.0000000000E+00   0.0000000000E+00  -1.1532270853E+02   1.1532270853E+02   0.0000000000E+00     0.000   1.
   25    2    1    2    0    0   0.0000000000E+00   0.0000000000E+00  -8.1450368469E+01   1.4919504859E+02   1.2500000000E+02  2.122E-08  -1.
3000002    2    3    0    0    0   3.0908290655E+01   5.0713103133E+01  -2.0784910547E+01   6.3711488501E+01   1.0000000000E+01  5.873E-10   1.
3000002    2    3    0    0    0  -3.0908290655E+01  -5.0713103133E+01  -6.0665457922E+01   8.5483560089E+01   1.0000000000E+01  4.320E-10   1.
3000001    1    4    0    0    0   1.6199342514E+01   3.3379810493E+01  -9.4130582166E+00   3.8291462644E+01   1.0000000000E+00     0.000   1.
3000022   2   4   0   0   0   1.4708948140E+01   1.7333292640E+01   -1.1371852330E+01   2.5420025857E+01   2.5000000000E-01   5.577822E-01   0.
3000001    1    5    0    0    0  -1.6545229444E+01  -2.5435527476E+01  -3.7877793986E+01   4.8543155569E+01   1.0000000000E+00     0.000   1.
3000022   2   5   0   0   0   -1.4363061210E+01   -2.5277575657E+01   -2.2787663936E+01   3.6940404520E+01   2.5000000000E-01   4.578085E+00   0.
13    1    7    0    0    0   8.3940049286E+00   9.8637971111E+00  -6.5493569915E+00   1.4514093640E+01   1.0500000000E-01     0.000   1.
-13    1    7    0    0    0   6.3149432117E+00   7.4694955293E+00  -4.8224953390E+00   1.0905932217E+01   1.0500000000E-01     0.000  -1.
13    1    9    0    0    0  -7.0266666561E+00  -1.2336600663E+01  -1.1043893982E+01   1.7987339422E+01   1.0500000000E-01     0.000   1.
-13    1    9    0    0    0  -7.3363945541E+00  -1.2940974995E+01  -1.1743769954E+01   1.8953065098E+01   1.0500000000E-01     0.000  -1.
</event>
<event>
 13   1  9.2978750E-05  1.2500000E+02  7.5467720E-03  1.2380620E-01
   21   -1    0    0  502  501   0.0000000000E+00   0.0000000000E+00   9.7779289168E+02   9.7779289168E+02   0.0000000000E+00     0.000  -1.
   21   -1    0    0  501  502   0.0000000000E+00   0.0000000000E+00  -3.9949666573E+00   3.9949666573E+00   0.0000000000E+00     0.000  -1.
   25    2    1    2    0    0   0.0000000000E+00   0.0000000000E+00   9.7379792502E+02   9.8178785834E+02   1.2500000000E+02  3.511E-08  -1.
3000002    2    3    0    0    0   3.3098660483E+01  -4.7705443038E+01   6.5069825616E+02   6.5336020019E+02   1.0000000000E+01  1.068E-09   1.
3000002    2    3    0    0    0  -3.3098660483E+01   4.7705443038E+01   3.2309966886E+02   3.2842765815E+02   1.0000000000E+01  6.225E-10   1.
3000001    1    4    0    0    0   7.6863881690E+00  -1.0086728637E+01   1.0274226586E+02   1.0352678809E+02   1.0000000000E+00     0.000  -1.
3000022   2   4   0   0   0   2.5412272314E+01   -3.7618714401E+01   5.4795599030E+02   5.4983341210E+02   2.5000000000E-01   8.412104E+00   0.
3000001    1    5    0    0    0  -2.9516497486E+01   4.4737382242E+01   2.8070677207E+02   2.8577954594E+02   1.0000000000E+00     0.000   1.
3000022   2   5   0   0   0   -3.5821629969E+00   2.9680607959E+00   4.2392896796E+01   4.2648112213E+01   2.5000000000E-01   4.619988E+00   0.
13    1    7    0    0    0   9.4770860131E+00  -1.3935235684E+01   2.0375358723E+02   2.0444936118E+02   1.0500000000E-01     0.000  -1.
-13    1    7    0    0    0   1.5935186301E+01  -2.3683478717E+01   3.4420240307E+02   3.4538405092E+02   1.0500000000E-01     0.000   1.
13    1    9    0    0    0  -2.0968722072E+00   1.8188218962E+00   2.5190939581E+01   2.5343627367E+01   1.0500000000E-01     0.000   1.
-13    1    9    0    0    0  -1.4852907896E+00   1.1492388998E+00   1.7201957214E+01   1.7304484846E+01   1.0500000000E-01     0.000  -1.
</event>
<event>
 13   1  9.2978750E-05  1.2500000E+02  7.5467720E-03  1.2380620E-01
   21   -1    0    0  502  501   0.0000000000E+00   0.0000000000E+00   3.6311771022E+01   3.6311771022E+01   0.0000000000E+00     0.000   1.
   21   -1    0    0  501  502   0.0000000000E+00   0.0000000000E+00  -1.0757530933E+02   1.0757530933E+02   0.0000000000E+00     0.000   1.
   25    2    1    2    0    0   0.0000000000E+00   0.0000000000E+00  -7.1263538306E+01   1.4388708035E+02   1.2500000000E+02  9.851E-09  -1.
3000002    2    3    0    0    0   5.1850986607E+01  -1.2152684980E+01  -7.1483162148E+01   8.9699805100E+01   1.0000000000E+01  3.704E-10  -1.
3000002    2    3    0    0    0  -5.1850986607E+01   1.2152684980E+01   2.1962384171E-01   5.4187275250E+01   1.0000000000E+01  1.174E-09  -1.
3000001    1    4    0    0    0   1.7499195365E+01  -5.6014752654E+00  -1.7602072326E+01   2.5464314516E+01   1.0000000000E+00     0.000   1.
3000022   2   4   0   0   0   3.4351791242E+01   -6.5512097141E+00   -5.3881089822E+01   6.4235490585E+01   2.5000000000E-01   9.385062E-01   0.
3000001    1    5    0    0    0  -5.0536086817E+01   9.8851074277E+00   7.1238523246E-01   5.1508435352E+01   1.0000000000E+00     0.000  -1.
3000022   2   5   0   0   0   -1.3148997901E+00   2.2675775519E+00   -4.9276139075E-01   2.6788398981E+00   2.5000000000E-01   9.110813E-01   0.
13    1    7    0    0    0   2.0379976771E+01  -3.8793076018E+00  -3.2080033932E+01   3.8203822881E+01   1.0500000000E-01     0.000   1.
-13    1    7    0    0    0   1.3971814471E+01  -2.6719021123E+00  -2.1801055890E+01   2.6031667704E+01   1.0500000000E-01     0.000  -1.
13    1    9    0    0    0  -6.2598957400E-01   1.1433557073E+00  -3.0580788878E-01   1.3430073288E+00   1.0500000000E-01     0.000  -1.
-13    1    9    0    0    0  -6.8891021609E-01   1.1242218445E+00  -1.8695350197E-01   1.3358325694E+00   1.0500000000E-01     0.000   1.
</event>
<event>
 13   1  9.2978750E-05  1.2500000E+02  7.5467720E-03  1.2380620E-01
   21   -1    0    0  502  501   0.0000000000E+00   0.0000000000E+00   1.9384643920E+01   1.9384643920E+01   0.0000000000E+00     0.000  -1.
   21   -1    0    0  501  502   0.0000000000E+00   0.0000000000E+00  -2.0151260019E+02   2.0151260019E+02   0.0000000000E+00     0.000  -1.
   25    2    1    2    0    0   0.0000000000E+00   0.0000000000E+00  -1.8212795627E+02   2.2089724411E+02   1.2500000000E+02  1.046E-07  -1.
3000002    2    3    0    0    0   3.9002287821E+01   9.9681367026E+00  -8.4456627566E+00   4.2330502289E+01   1.0000000000E+01  8.969E-10  -1.
3000002    2    3    0    0    0  -3.9002287821E+01  -9.9681367026E+00  -1.7368229351E+02   1.7856674182E+02   1.0000000000E+01  9.394E-10  -1.
3000001    1    4    0    0    0   4.4374553740E+00  -1.9040966818E+00  -1.0683157095E+00   5.0455815151E+00   1.0000000000E+00     0.000   1.
3000022   2   4   0   0   0   3.4564832447E+01   1.1872233384E+01   -7.3773470471E+00   3.7284920774E+01   2.5000000000E-01   2.243485E+00   0.
3000001    1    5    0    0    0  -2.9261929684E+01  -4.7576270119E+00  -1.0981614389E+02   1.1375183955E+02   1.0000000000E+00     0.000   1.
3000022   2   5   0   0   0   -9.7403581376E+00   -5.2105096907E+00   -6.3866149627E+01   6.4814902269E+01   2.5000000000E-01   9.045455E+00   0.
13    1    7    0    0    0   9.8638453354E+00   3.4285193633E+00  -2.1245534708E+00   1.0657154511E+01   1.0500000000E-01     0.000   1.
-13    1    7    0    0    0   2.4700987112E+01   8.4437140212E+00  -5.2527935763E+00   2.6627766263E+01   1.0500000000E-01     0.000  -1.
13    1    9    0    0    0  -3.1747763086E+00  -1.6402076698E+00  -2.0632936109E+01   2.0940357287E+01   1.0500000000E-01     0.000  -1.
-13    1    9    0    0    0  -6.5655818290E+00  -3.5703020209E+00  -4.3233213518E+01   4.3874544982E+01   1.0500000000E-01     0.000   1.
</event>
<event>
 13   1  9.2978750E-05  1.2500000E+02  7.5467720E-03  1.2380620E-01
   21   -1    0    0  502  501   0.0000000000E+00   0.0000000000E+00   2.0896207762E+01   2.0896207762E+01   0.0000000000E+00     0.000   1.
   21   -1    0    0  501  502   0.0000000000E+00   0.0000000000E+00  -1.8693583279E+02   1.8693583279E+02   0.0000000000E+00     0.000   1.
   25    2    1    2    0    0   0.0000000000E+00   0.0000000000E+00  -1.6603962503E+02   2.0783204055E+02   1.2500000000E+02  2.921E-08  -1.
3000002    2    3    0    0    0  -4.0318655593E+01  -1.4938999400E+01  -9.4581710801E+00   4.5146701896E+01   1.0000000000E+01  7.878E-10   1.
3000002    2    3    0    0    0   4.0318655593E+01   1.4938999400E+01  -1.5658145395E+02   1.6268533865E+02   1.0000000000E+01  4.497E-10   1.
3000001    1    4    0    0    0  -2.1841317022E+00   4.4143117332E-01   1.1212531157E+00   2.6874711762E+00   1.0000000000E+00     0.000  -1.
3000022   2   4   0   0   0   -3.8134523891E+01   -1.5380430573E+01   -1.0579424196E+01   4.2459230720E+01   2.5000000000E-01   9.478539E-01   0.
3000001    1    5    0    0    0   2.0325024984E+01   1.1055522943E+01  -6.9642267666E+01   7.3391938753E+01   1.0000000000E+00     0.000   1.
3000022   2   5   0   0   0   1.9993630609E+01   3.8834764574E+00   -8.6939186283E+01   8.9293399901E+01   2.5000000000E-01   4.630724E+00   0.
13    1    7    0    0    0  -2.2836427855E+01  -9.1833944328E+00  -6.2728301610E+00   2.5400720338E+01   1.0500000000E-01     0.000  -1.
-13    1    7    0    0    0  -1.5298096036E+01  -6.1970361406E+00  -4.3065940348E+00   1.7058510382E+01   1.0500000000E-01     0.000   1.
13    1    9    0    0    0   1.5268462643E+01   2.9501085254E+00  -6.6353711104E+01   6.8151706465E+01   1.0500000000E-01     0.000  -1.
-13    1    9    0    0    0   4.7251679659E+00   9.3336793194E-01  -2.0585475179E+01   2.1141693436E+01   1.0500000000E-01     0.000   1.
</event>
<event>
 13   1  9.2978750E-05  1.2500000E+02  7.5467720E-03  1.2380620E-01
   21   -1    0    0  502  501   0.0000000000E+00   0.0000000000E+00   5.5359801205E+02   5.5359801205E+02   0.0000000000E+00     0.000   1.
   21   -1    0    0  501  502   0.0000000000E+00   0.0000000000E+00  -7.0561127660E+00   7.0561127660E+00   0.0000000000E+00     0.000   1.
   25    2    1    2    0    0   0.0000000000E+00   0.0000000000E+00   5.4654189928E+02   5.6065412481E+02   1.2500000000E+02  1.791E-08  -1.
3000002    2    3    0    0    0   3.2393483531E+01  -4.1009386578E+00   5.0805456249E+02   5.0920093670E+02   1.0000000000E+01  2.594E-09  -1.
3000002    2    3    0    0    0  -3.2393483531E+01   4.1009386578E+00   3.8487336793E+01   5.1453188109E+01   1.0000000000E+01  4.254E-10  -1.
3000001    1    4    0    0    0   3.1944372172E+00  -3.0866847977E+00   4.6455740642E+01   4.6678344987E+01   1.0000000000E+00     0.000  -1.
3000022   2   4   0   0   0   2.9199046314E+01   -1.0142538601E+00   4.6159882185E+02   4.6252259171E+02   2.5000000000E-01   1.038996E+01   0.
3000001    1    5    0    0    0  -6.3846850554E+00   8.1285090444E-01   2.6082465792E+00   7.0162582669E+00   1.0000000000E+00     0.000   1.
3000022   2   5   0   0   0   -2.6008798476E+01   3.2880877533E+00   3.5879090213E+01   4.4436929842E+01   2.5000000000E-01   1.792275E+00   0.
13    1    7    0    0    0   9.3856662839E+00  -3.7508370281E-01   1.4863430817E+02   1.4893085647E+02   1.0500000000E-01     0.000   1.
-13    1    7    0    0    0   1.9813380030E+01  -6.3917015727E-01   3.1296451368E+02   3.1359173524E+02   1.0500000000E-01     0.000  -1.
13    1    9    0    0    0  -1.4078608193E+01   1.7134613697E+00   1.9431137691E+01   2.4056668421E+01   1.0500000000E-01     0.000   1.
-13    1    9    0    0    0  -1.1930190283E+01   1.5746263836E+00   1.6447952522E+01   2.0380261421E+01   1.0500000000E-01     0.000  -1.
</event>
<event>
 13   1  9.2978750E-05  1.2500000E+02  7.5467720E-03  1.2380620E-01
   21   -1    0    0  502  501   0.0000000000E+00   0.0000000000E+00   1.9752549511E+01   1.9752549511E+01   0.0000000000E+00     0.000  -1.
   21   -1    0    0  501  502   0.0000000000E+00   0.0000000000E+00  -1.9775928155E+02   1.9775928155E+02   0.0000000000E+00     0.000  -1.
   25    2    1    2    0    0   0.0000000000E+00   0.0000000000E+00  -1.7800673204E+02   2.1751183106E+02   1.2500000000E+02  6.954E-08  -1.
3000002    2    3    0    0    0   3.6870714545E+01   3.0208114206E+01  -1.5716245903E+02   1.6453576597E+02   1.0000000000E+01  1.401E-09   1.
3000002    2    3    0    0    0  -3.6870714545E+01  -3.0208114206E+01  -2.0844273007E+01   5.2976065087E+01   1.0000000000E+01  1.959E-10   1.
3000001    1    4    0    0    0   1.3652052218E+01   9.1495047348E+00  -4.0092568780E+01   4.3341735522E+01   1.0000000000E+00     0.000  -1.
3000022   2   4   0   0   0   2.3218662327E+01   2.1058609471E+01   -1.1706989025E+02   1.2119403045E+02   2.5000000000E-01   3.346608E+00   0.
3000001    1    5    0    0    0  -4.4337845757E+00  -6.8506354796E+00  -6.5958532560E+00   1.0540158078E+01   1.0000000000E+00     0.000  -1.
3000022   2   5   0   0   0   -3.2436929969E+01   -2.3357478726E+01   -1.4248419751E+01   4.2435907009E+01   2.5000000000E-01   1.066917E+00   0.
13    1    7    0    0    0   1.2045185832E+01   1.0925014985E+01  -6.0995010703E+01   6.3125627203E+01   1.0500000000E-01     0.000  -1.
-13    1    7    0    0    0   1.1173476495E+01   1.0133594486E+01  -5.6074879550E+01   5.8068403248E+01   1.0500000000E-01     0.000   1.
13    1    9    0    0    0  -2.2771142959E+01  -1.6417735333E+01  -1.0051337631E+01   2.9817903989E+01   1.0500000000E-01     0.000   1.
-13    1    9    0    0    0  -9.6657870100E+00  -6.9397433935E+00  -4.1970821201E+00   1.2618003020E+01   1.0500000000E-01     0.000  -1.
</event>
<event>
 13   1  9.2978750E-05  1.2500000E+02  7.5467720E-03  1.2380620E-01
   21   -1    0    0  502  501   0.0000000000E+00   0.0000000000E+00   1.3116896973E+01   1.3116896973E+01   0.0000000000E+00     0.000  -1.
   21   -1    0    0  501  502   0.0000000000E+00   0.0000000000E+00  -2.9780290324E+02   2.9780290324E+02   0.0000000000E+00     0.000  -1.
   25    2    1    2    0    0   0.0000000000E+00   0.0000000000E+00  -2.8468600627E+02   3.1091980021E+02   1.2500000000E+02  8.428E-08  -1.
3000002    2    3    0    0    0  -4.6605118747E+01   2.1735453332E+01  -5.7561547106E+01   7.7831861922E+01   1.0000000000E+01  1.003E-09   1.
3000002    2    3    0    0    0   4.6605118747E+01  -2.1735453332E+01  -2.2712445916E+02   2.3308793829E+02   1.0000000000E+01  2.704E-10   1.
3000001    1    4    0    0    0  -1.9527915303E+01   5.7392410731E+00  -1.7220936469E+01   2.6680311412E+01   1.0000000000E+00     0.000  -1.
3000022   2   4   0   0   0   -2.7077203444E+01   1.5996212259E+01   -4.0340610637E+01   5.1151550510E+01   2.5000000000E-01   6.644329E+00   0.
3000001    1    5    0    0    0   3.9465198433E+01  -2.1960120218E+01  -1.9189376001E+02   1.9713945292E+02   1.0000000000E+00     0.000   1.
3000022   2   5   0   0   0   7.1399203139E+00   2.2466688637E-01   -3.5230699153E+01   3.5948485366E+01   2.5000000000E-01   9.414573E+00   0.
13    1    7    0    0    0  -1.6871259087E+01   1.0026132625E+01  -2.5121309183E+01   3.1878737720E+01   1.0500000000E-01     0.000   1.
-13    1    7    0    0    0  -1.0205944357E+01   5.9700796338E+00  -1.5219301455E+01   1.9272812789E+01   1.0500000000E-01     0.000  -1.
13    1    9    0    0    0   3.0986694144E+00   1.3529139195E-01  -1.5027575732E+01   1.5344677034E+01   1.0500000000E-01     0.000  -1.
-13    1    9    0    0    0   4.0412508995E+00   8.9375494418E-02  -2.0203123421E+01   2.0603808332E+01   1.0500000000E-01     0.000   1.
</event>
<event>
 13   1  9.2978750E-05  1.2500000E+02  7.5467720E-03  1.2380620E-01
   21   -1    0    0  502  501   0.0000000000E+00   0.0000000000E+00   6.5727256617E+02   6.5727256617E+02   0.0000000000E+00     0.000   1.
   21   -1    0    0  501  502   0.0000000000E+00   0.0000000000E+00  -5.9431204055E+00   5.9431204055E+00   0.0000000000E+00     0.000   1.
   25    2    1    2    0    0   0.0000000000E+00   0.0000000000E+00   6.5132944577E+02   6.6321568658E+02   1.2500000000E+02  2.988E-08  -1.
3000002    2    3    0    0    0  -3.0567071046E+01  -1.9387515964E+01   5.9074019116E+02   5.9193259334E+02   1.0000000000E+01  2.620E-10   1.
3000002    2    3    0    0    0   3.0567071046E+01   1.9387515964E+01   6.0589254613E+01   7.1283093242E+01   1.0000000000E+01  4.251E-10   1.
3000001    1    4    0    0    0  -3.0993589831E+01  -1.9879408615E+01   5.8212875167E+02   5.8329295986E+02   1.0000000000E+00     0.000   1.
3000022   2   4   0   0   0   4.2651878454E-01   4.9189265044E-01   8.6114394836E+00   8.6396334779E+00   2.5000000000E-01   2.556171E+00   0.
3000001    1    5    0    0    0   8.7120811980E+00   5.9672418595E+00   2.7093031154E+01   2.9095371991E+01   1.0000000000E+00     0.000   1.
3000022   2   5   0   0   0   2.1854989848E+01   1.3420274105E+01   3.3496223459E+01   4.2187721251E+01   2.5000000000E-01   2.506376E-01   0.
13    1    7    0    0    0   8.4375835014E-02   1.5555710834E-01   2.6951949628E+00   2.7030386944E+00   1.0500000000E-01     0.000  -1.
-13    1    7    0    0    0   3.4214294953E-01   3.3633554210E-01   5.9162445207E+00   5.9365947836E+00   1.0500000000E-01     0.000   1.
13    1    9    0    0    0   1.2971262396E+01   7.9478453433E+00   1.9766458927E+01   2.4942851025E+01   1.0500000000E-01     0.000   1.
-13    1    9    0    0    0   8.8837274522E+00   5.4724287614E+00   1.3729764532E+01   1.7244870226E+01   1.0500000000E-01     0.000  -1.
</event>
<event>
 13   1  9.2978750E-05  1.2500000E+02  7.5467720E-03  1.2380620E-01
   21   -1    0    0  502  501   0.0000000000E+00   0.0000000000E+00   1.6094600269E+01   1.6094600269E+01   0.0000000000E+00     0.000   1.
   21   -1    0    0  501  502   0.0000000000E+00   0.0000000000E+00  -2.4270562391E+02   2.4270562391E+02   0.0000000000E+00     0.000   1.
   25    2    1    2    0    0   0.0000000000E+00   0.0000000000E+00  -2.2661102364E+02   2.5880022418E+02   1.2500000000E+02  3.500E-09  -1.
3000002    2    3    0    0    0   4.3954660514E+01   4.0843725401E+01  -1.4302338113E+02   1.5542171546E+02   1.0000000000E+01  8.219E-10  -1.
3000002    2    3    0    0    0  -4.3954660514E+01  -4.0843725401E+01  -8.3587642509E+01   1.0337850872E+02   1.0000000000E+01  1.894E-10  -1.
3000001    1    4    0    0    0   2.0760376639E+01   2.5724216344E+01  -7.4129356972E+01   8.1171978600E+01   1.0000000000E+00     0.000   1.
3000022   2   4   0   0   0   2.3194283875E+01   1.5119509057E+01   -6.8894024159E+01   7.4249736857E+01   2.5000000000E-01   5.169720E+00   0.
3000001    1    5    0    0    0  -4.2881388281E+01  -3.8139313760E+01  -8.1885691158E+01   9.9998435645E+01   1.0000000000E+00     0.000  -1.
3000022   2   5   0   0   0   -1.0732722330E+00   -2.7044116411E+00   -1.7019513506E+00   3.3800730777E+00   2.5000000000E-01   1.507904E+01   0.
13    1    7    0    0    0   1.3286028997E+01   8.7252986067E+00  -3.9648574214E+01   4.2716154608E+01   1.0500000000E-01     0.000  -1.
-13    1    7    0    0    0   9.9082548777E+00   6.3942104502E+00  -2.9245449945E+01   3.1533582249E+01   1.0500000000E-01     0.000   1.
13    1    9    0    0    0  -6.7948580256E-01  -1.7335834836E+00  -1.0206896860E+00   2.1259927295E+00   1.0500000000E-01     0.000   1.
-13    1    9    0    0    0  -3.9378643041E-01  -9.7082815742E-01  -6.8126166465E-01   1.2540803482E+00   1.0500000000E-01     0.000  -1.
</event>
<event>
 13   1  9.2978750E-05  1.2500000E+02  7.5467720E-03  1.2380620E-01
   21   -1    0    0  502  501   0.0000000000E+00   0.0000000000E+00   6.2233096509E+02   6.2233096509E+02   0.0000000000E+00     0.000   1.
   21   -1    0    0  501  502   0.0000000000E+00   0.0000000000E+00  -6.2768048179E+00   6.2768048179E+00   0.0000000000E+00     0.000   1.
   25    2    1    2    0    0   0.0000000000E+00   0.0000000000E+00   6.1605416027E+02   6.2860776991E+02   1.2500000000E+02  1.979E-08  -1.
3000002    2    3    0    0    0   5.4580726061E+01   1.9384536752E+01   2.0117895593E+02   2.0958957090E+02   1.0000000000E+01  6.531E-10  -1.
3000002    2    3    0    0    0  -5.4580726061E+01  -1.9384536752E+01   4.1487520434E+02   4.1901819901E+02   1.0000000000E+01  4.653E-10  -1.
3000001    1    4    0    0    0   1.7778999519E+01   7.0203674560E+00   8.3734062122E+01   8.5893955216E+01   1.0000000000E+00     0.000  -1.
3000022   2   4   0   0   0   3.6801726542E+01   1.2364169296E+01   1.1744489381E+02   1.2369561569E+02   2.5000000000E-01   2.777308E+00   0.
3000001    1    5    0    0    0  -4.5147588573E+01  -1.5676727941E+01   3.1142697616E+02   3.1507431827E+02   1.0000000000E+00     0.000  -1.
3000022   2   5   0   0   0   -9.4331374884E+00   -3.7078088103E+00   1.0344822818E+02   1.0394388074E+02   2.5000000000E-01   7.891436E+00   0.
13    1    7    0    0    0   1.8774552052E+01   6.3742124538E+00   6.0057744635E+01   6.3246012561E+01   1.0500000000E-01     0.000  -1.
-13    1    7    0    0    0   1.8027174490E+01   5.9899568418E+00   5.7387149171E+01   6.0449603126E+01   1.0500000000E-01     0.000   1.
13    1    9    0    0    0  -5.4930132669E+00  -2.1051622639E+00   5.9612700372E+01   5.9902336963E+01   1.0500000000E-01     0.000  -1.
-13    1    9    0    0    0  -3.9401242214E+00  -1.6026465465E+00   4.3835527812E+01   4.4041543779E+01   1.0500000000E-01     0.000   1.
</event>
<event>
 13   1  9.2978750E-05  1.2500000E+02  7.5467720E-03  1.2380620E-01
   21   -1    0    0  502  501   0.0000000000E+00   0.0000000000E+00   1.1192601065E+01   1.1192601065E+01   0.0000000000E+00     0.000  -1.
   21   -1    0    0  501  502   0.0000000000E+00   0.0000000000E+00  -3.4900287942E+02   3.4900287942E+02   0.0000000000E+00     0.000  -1.
   25    2    1    2    0    0   0.0000000000E+00   0.0000000000E+00  -3.3781027835E+02   3.6019548048E+02   1.2500000000E+02  2.954E-08  -1.
3000002    2    3    0    0    0   1.5877700081E+01  -4.2151467099E+01  -2.9038971311E+02   2.9403236729E+02   1.0000000000E+01  1.862E-10   1.
3000002    2    3    0    0    0  -1.5877700081E+01   4.2151467099E+01  -4.7420565243E+01   6.6163113186E+01   1.0000000000E+01  1.199E-09   1.
3000001    1    4    0    0    0   2.9278787466E+00  -1.4345616853E+00  -2.2141891908E+01   2.2402986820E+01   1.0000000000E+00     0.000   1.
3000022   2   4   0   0   0   1.2949821334E+01   -4.0716905414E+01   -2.6824782120E+02   2.7162938047E+02   2.5000000000E-01   3.517176E+00   0.
3000001    1    5    0    0    0  -5.2495061508E+00   5.0292555670E+00  -5.5176600084E+00   9.1812471023E+00   1.0000000000E+00     0.000  -1.
3000022   2   5   0   0   0   -1.0628193930E+01   3.7122211532E+01   -4.1902905235E+01   5.6981866083E+01   2.5000000000E-01   1.177377E+00   0.
13    1    7    0    0    0   5.5768281686E+00  -1.7750878471E+01  -1.1685809131E+02   1.1833012816E+02   1.0500000000E-01     0.000  -1.
-13    1    7    0    0    0   7.3729931654E+00  -2.2966026943E+01  -1.5138972989E+02   1.5329925232E+02   1.0500000000E-01     0.000   1.
13    1    9    0    0    0  -5.6598355025E+00   1.9789873859E+01  -2.2237630628E+01   3.0301750547E+01   1.0500000000E-01     0.000  -1.
-13    1    9    0    0    0  -4.9683584272E+00   1.7332337673E+01  -1.9665274607E+01   2.6680115536E+01   1.0500000000E-01     0.000   1.
</event>
<event>
 13   1  9.2978750E-05  1.2500000E+02  7.5467720E-03  1.2380620E-01
   21   -1    0    0  502  501   0.0000000000E+00   0.0000000000E+00   1.9256920545E+01   1.9256920545E+01   0.0000000000E+00     0.000  -1.
   21   -1    0    0  501  502   0.0000000000E+00   0.0000000000E+00  -2.0284915186E+02   2.0284915186E+02   0.0000000000E+00     0.000  -1.
   25    2    1    2    0    0   0.0000000000E+00   0.0000000000E+00  -1.8359223132E+02   2.2210607241E+02   1.2500000000E+02  5.645E-08  -1.
3000002    2    3    0    0    0  -1.1454317508E+01   9.1090201904E+00   1.4697378940E+01   2.3025824331E+01   1.0000000000E+01  2.826E-09   1.
3000002    2    3    0    0    0   1.1454317508E+01  -9.1090201904E+00  -1.9828961026E+02   1.9908024808E+02   1.0000000000E+01  6.172E-10   1.
3000001    1    4    0    0    0  -1.2919669561E+01   9.5963655955E+00   1.2955714271E+01   2.0684743810E+01   1.0000000000E+00     0.000   1.
3000022   2   4   0   0   0   1.4653520535E+00   -4.8734540513E-01   1.7416646690E+00   2.3410805206E+00   2.5000000000E-01   7.995580E+00   0.
3000001    1    5    0    0    0   6.8784397474E+00  -5.3933205181E-01  -1.1779610121E+02   1.1800222571E+02   1.0000000000E+00     0.000   1.
3000022   2   5   0   0   0   4.5758777605E+00   -8.5696881385E+00   -8.0493509053E+01   8.1078022372E+01   2.5000000000E-01   2.863450E+00   0.
13    1    7    0    0    0   3.8864733168E-01  -1.5054960441E-01   5.2608024702E-01   6.7933596851E-01   1.0500000000E-01     0.000  -1.
-13    1    7    0    0    0   1.0767047218E+00  -3.3679580072E-01   1.2155844220E+00   1.6617445521E+00   1.0500000000E-01     0.000   1.
13    1    9    0    0    0   1.1998287880E+00  -2.2267864354E+00  -2.1224152827E+01   2.1374607720E+01   1.0500000000E-01     0.000   1.
-13    1    9    0    0    0   3.3760489725E+00  -6.3429017032E+00  -5.9269356226E+01   5.9703414652E+01   1.0500000000E-01     0.000  -1.
</event>
<event>
 13   1  9.2978750E-05  1.2500000E+02  7.5467720E-03  1.2380620E-01
   21   -1    0    0  502  501   0.0000000000E+00   0.0000000000E+00   2.8415261960E+02   2.8415261960E+02   0.0000000000E+00     0.000  -1.
   21   -1    0    0  501  502   0.0000000000E+00   0.0000000000E+00  -1.3747013860E+01   1.3747013860E+01   0.0000000000E+00     0.000  -1.
   25    2    1    2    0    0   0.0000000000E+00   0.0000000000E+00   2.7040560574E+02   2.9789963346E+02   1.2500000000E+02  7.473E-08  -1.
3000002    2    3    0    0    0   4.4529816257E+01  -3.9164204327E+01   9.4652681053E+01   1.1214218415E+02   1.0000000000E+01  1.266E-10   1.
3000002    2    3    0    0    0  -4.4529816257E+01   3.9164204327E+01   1.7575292469E+02   1.8575744931E+02   1.0000000000E+01  1.611E-11   1.
3000001    1    4    0    0    0   3.3214488334E+01  -3.2534887870E+01   7.9480459542E+01   9.2086180359E+01   1.0000000000E+00     0.000   1.
3000022   2   4   0   0   0   1.1315327923E+01   -6.6293164574E+00   1.5172221510E+01   2.0056003796E+01   2.5000000000E-01   1.116684E+00   0.
3000001    1    5    0    0    0  -2.3190947891E+01   1.6873876902E+01   7.1856424416E+01   7.7375018679E+01   1.0000000000E+00     0.000   1.
3000022   2   5   0   0   0   -2.1338868366E+01   2.2290327425E+01   1.0389650027E+02   1.0838243063E+02   2.5000000000E-01   8.825537E+00   0.
13    1    7    0    0    0   5.0371736710E+00  -3.0280903069E+00   6.7921373571E+00   8.9825722584E+00   1.0500000000E-01     0.000  -1.
-13    1    7    0    0    0   6.2781542518E+00  -3.6012261505E+00   8.3800841533E+00   1.1073431537E+01   1.0500000000E-01     0.000   1.
13    1    9    0    0    0  -1.2777790574E+01   1.3435960220E+01   6.2480596805E+01   6.5173867164E+01   1.0500000000E-01     0.000   1.
-13    1    9    0    0    0  -8.5610777924E+00   8.8543672046E+00   4.1415903467E+01   4.3208563463E+01   1.0500000000E-01     0.000  -1.
</event>
<event>
 13   1  9.2978750E-05  1.2500000E+02  7.5467720E-03  1.2380620E-01
   21   -1    0    0  502  501   0.0000000000E+00   0.0000000000E+00   5.4582223112E+01   5.4582223112E+01   0.0000000000E+00     0.000  -1.
   21   -1    0    0  501  502   0.0000000000E+00   0.0000000000E+00  -7.1566341150E+01   7.1566341150E+01   0.0000000000E+00     0.000  -1.
   25    2    1    2    0    0   0.0000000000E+00   0.0000000000E+00  -1.6984118038E+01   1.2614856426E+02   1.2500000000E+02  3.615E-09  -1.
3000002    2    3    0    0    0  -2.3364671802E+00  -2.3767075108E+01  -6.5899870382E+01   7.0803431092E+01   1.0000000000E+01  1.173E-09   1.
3000002    2    3    0    0    0   2.3364671802E+00   2.3767075108E+01   4.8915752344E+01   5.5345133168E+01   1.0000000000E+01  8.466E-10   1.
3000001    1    4    0    0    0  -2.2008368632E+00  -1.0455436758E+01  -1.6837786920E+01   1.9966745080E+01   1.0000000000E+00     0.000  -1.
3000022   2   4   0   0   0   -1.3563031698E-01   -1.3311638349E+01   -4.9062083461E+01   5.0836686012E+01   2.5000000000E-01   2.268648E+00   0.
3000001    1    5    0    0    0  -2.9422310649E+00   1.5532007973E+01   2.6271372956E+01   3.0677109256E+01   1.0000000000E+00     0.000   1.
3000022   2   5   0   0   0   5.2786982451E+00   8.2350671343E+00   2.2644379388E+01   2.4668023912E+01   2.5000000000E-01   4.352472E-01   0.
13    1    7    0    0    0  -1.1205534781E-01  -8.2905108576E+00  -3.0760352151E+01   3.1858364932E+01   1.0500000000E-01     0.000   1.
-13    1    7    0    0    0  -2.3574969164E-02  -5.0211274918E+00  -1.8301731310E+01   1.8978321080E+01   1.0500000000E-01     0.000  -1.
13    1    9    0    0    0   2.1080649278E+00   3.4071332925E+00   9.2803922945E+00   1.0108867451E+01   1.0500000000E-01     0.000   1.
-13    1    9    0    0    0   3.1706333174E+00   4.8279338418E+00   1.3363987093E+01   1.4559156461E+01   1.0500000000E-01     0.000  -1.
</event>
<event>
 13   1  9.2978750E-05  1.2500000E+02  7.5467720E-03  1.2380620E-01
   21   -1    0    0  502  501   0.0000000000E+00   0.0000000000E+00   4.6049940408E+01   4.6049940408E+01   0.0000000000E+00     0.000   1.
   21   -1    0    0  501  502   0.0000000000E+00   0.0000000000E+00  -8.4826385558E+01   8.4826385558E+01   0.0000000000E+00     0.000   1.
   25    2    1    2    0    0   0.0000000000E+00   0.0000000000E+00  -3.8776445150E+01   1.3087632597E+02   1.2500000000E+02  2.403E-08  -1.
3000002    2    3    0    0    0  -6.1160319645E+01   1.6180251400E+00  -1.1074714679E+01   6.2975010994E+01   1.0000000000E+01  2.863E-10  -1.
3000002    2    3    0    0    0   6.1160319645E+01  -1.6180251400E+00  -2.7701730471E+01   6.7901314976E+01   1.0000000000E+01  1.174E-09  -1.
3000001    1    4    0    0    0  -4.3445409365E+01   1.9945875905E+00  -3.3117577206E+00   4.3628542421E+01   1.0000000000E+00     0.000  -1.
3000022   2   4   0   0   0   -1.7714910280E+01   -3.7656245051E-01   -7.7629569585E+00   1.9346468573E+01   2.5000000000E-01   1.063376E+00   0.
3000001    1    5    0    0    0   4.0678005870E+01   3.5066491629E+00  -1.7139208165E+01   4.4291638109E+01   1.0000000000E+00     0.000  -1.
3000022   2   5   0   0   0   2.0482313775E+01   -5.1246743028E+00   -1.0562522306E+01   2.3609676867E+01   2.5000000000E-01   8.593951E+00   0.
13    1    7    0    0    0  -4.7592627585E+00  -7.3311060071E-02  -2.0617845814E+00   5.1882499145E+00   1.0500000000E-01     0.000   1.
-13    1    7    0    0    0  -1.2955647521E+01  -3.0325139044E-01  -5.7011723771E+00   1.4158218658E+01   1.0500000000E-01     0.000  -1.
13    1    9    0    0    0   1.3777680360E+01  -3.4158598697E+00  -7.0532270082E+00   1.5850918301E+01   1.0500000000E-01     0.000  -1.
-13    1    9    0    0    0   6.7046334148E+00  -1.7088144331E+00  -3.5092952977E+00   7.7587585656E+00   1.0500000000E-01     0.000   1.
</event>
<event>
 13   1  9.2978750E-05  1.2500000E+02  7.5467720E-03  1.2380620E-01
   21   -1    0    0  502  501   0.0000000000E+00   0.0000000000E+00   2.3833874740E+01   2.3833874740E+01   0.0000000000E+00     0.000  -1.
   21   -1    0    0  501  502   0.0000000000E+00   0.0000000000E+00  -1.6389487830E+02   1.6389487830E+02   0.0000000000E+00     0.000  -1.
   25    2    1    2    0    0   0.0000000000E+00   0.0000000000E+00  -1.4006100356E+02   1.8772875304E+02   1.2500000000E+02  1.546E-08  -1.
3000002    2    3    0    0    0  -3.7981486130E+01  -4.8594825592E+01  -6.7803111653E+01   9.2202561314E+01   1.0000000000E+01  2.006E-09   1.
3000002    2    3    0    0    0   3.7981486130E+01   4.8594825592E+01  -7.2257891907E+01   9.5526191726E+01   1.0000000000E+01  1.954E-09   1.
3000001    1    4    0    0    0  -2.6348490744E+01  -3.9202564933E+01  -4.7583328244E+01   6.7054136252E+01   1.0000000000E+00     0.000   1.
3000022   2   4   0   0   0   -1.1632995386E+01   -9.3922606588E+00   -2.0219783409E+01   2.5148425061E+01   2.5000000000E-01   2.923238E+00   0.
3000001    1    5    0    0    0   2.4474158991E+01   2.9309584876E+01  -5.1619031200E+01   6.4214956248E+01   1.0000000000E+00     0.000  -1.
3000022   2   5   0   0   0   1.3507327139E+01   1.9285240716E+01   -2.0638860707E+01   3.1311235479E+01   2.5000000000E-01   5.216458E+00   0.
13    1    7    0    0    0  -8.8054927428E+00  -7.0804157997E+00  -1.5275071938E+01   1.9000206263E+01   1.0500000000E-01     0.000   1.
-13    1    7    0    0    0  -2.8275026430E+00  -2.3118448591E+00  -4.9447114716E+00   6.1482187978E+00   1.0500000000E-01     0.000  -1.
13    1    9    0    0    0   7.9691451379E+00   1.1405818201E+01  -1.2278675170E+01   1.8557393459E+01   1.0500000000E-01     0.000   1.
-13    1    9    0    0    0   5.5381820016E+00   7.8794225146E+00  -8.3601855375E+00   1.2753842020E+01   1.0500000000E-01     0.000  -1.
</event>
<event>
 13   1  9.2978750E-05  1.2500000E+02  7.5467720E-03  1.2380620E-01
   21   -1    0    0  502  501   0.0000000000E+00   0.0000000000E+00   1.8180839188E+01   1.8180839188E+01   0.0000000000E+00     0.000   1.
   21   -1    0    0  501  502   0.0000000000E+00   0.0000000000E+00  -2.1485531881E+02   2.1485531881E+02   0.0000000000E+00     0.000   1.
   25    2    1    2    0    0   0.0000000000E+00   0.0000000000E+00  -1.9667447962E+02   2.3303615799E+02   1.2500000000E+02  1.422E-08  -1.
3000002    2    3    0    0    0   4.9283866620E+01  -8.4967730296E+00  -3.0986185175E+01   5.9676111910E+01   1.0000000000E+01  1.747E-09  -1.
3000002    2    3    0    0    0  -4.9283866620E+01   8.4967730296E+00  -1.6568829444E+02   1.7336004608E+02   1.0000000000E+01  6.216E-10  -1.
3000001    1    4    0    0    0   1.7965577404E+01  -7.8311580213E+00  -1.3238574173E+01   2.3671688861E+01   1.0000000000E+00     0.000   1.
3000022   2   4   0   0   0   3.1318289216E+01   -6.6561500833E-01   -1.7747611003E+01   3.6004423049E+01   2.5000000000E-01   7.227488E+00   0.
3000001    1    5    0    0    0  -3.8767123965E+01   1.0000880032E+01  -1.3831686923E+02   1.4399813824E+02   1.0000000000E+00     0.000  -1.
3000022   2   5   0   0   0   -1.0516742655E+01   -1.5041070021E+00   -2.7371425211E+01   2.9361907841E+01   2.5000000000E-01   1.505134E+00   0.
13    1    7    0    0    0   1.6338046204E+01  -2.8406255903E-01  -9.2854622798E+00   1.8794767358E+01   1.0500000000E-01     0.000   1.
-13    1    7    0    0    0   1.4980243012E+01  -3.8155244930E-01  -8.4621487230E+00   1.7209655691E+01   1.0500000000E-01     0.000  -1.
13    1    9    0    0    0  -4.5697615457E+00  -5.9376244109E-01  -1.1793540144E+01   1.2662301866E+01   1.0500000000E-01     0.000  -1.
-13    1    9    0    0    0  -5.9469811092E+00  -9.1034456104E-01  -1.5577885067E+01   1.6699605975E+01   1.0500000000E-01     0.000   1.
</event>
<event>
 13   1  9.2978750E-05  1.2500000E+02  7.5467720E-03  1.2380620E-01
   21   -1    0    0  502  501   0.0000000000E+00   0.0000000000E+00   1.7802975843E+01   1.7802975843E+01   0.0000000000E+00     0.000   1.
   21   -1    0    0  501  502   0.0000000000E+00   0.0000000000E+00  -2.1941556481E+02   2.1941556481E+02   0.0000000000E+00     0.000   1.
   25    2    1    2    0    0   0.0000000000E+00   0.0000000000E+00  -2.0161258897E+02   2.3721854066E+02   1.2500000000E+02  1.510E-08  -1.
3000002    2    3    0    0    0   2.0817874629E+01   1.2878726090E+01   6.6639909156E+00   2.7270025022E+01   1.0000000000E+01  1.000E-10  -1.
3000002    2    3    0    0    0  -2.0817874629E+01  -1.2878726090E+01  -2.0827657989E+02   2.0994851564E+02   1.0000000000E+01  4.460E-10  -1.
3000001    1    4    0    0    0   1.7651145207E+01   1.2793994936E+01   2.4036522110E+00   2.1955108232E+01   1.0000000000E+00     0.000  -1.
3000022   2   4   0   0   0   3.1667294221E+00   8.4731153775E-02   4.2603387046E+00   5.3149167895E+00   2.5000000000E-01   3.062009E-01   0.
3000001    1    5    0    0    0  -2.1004431942E+01  -1.1278918878E+01  -1.7343627731E+02   1.7507010727E+02   1.0000000000E+00     0.000  -1.
3000022   2   5   0   0   0   1.8655731324E-01   -1.5998072125E+00   -3.4840302580E+01   3.4878408373E+01   2.5000000000E-01   1.869130E+01   0.
13    1    7    0    0    0   1.5052344655E+00  -2.6795425641E-02   2.0368157697E+00   2.5349738205E+00   1.0500000000E-01     0.000   1.
-13    1    7    0    0    0   1.6614949566E+00   1.1152657942E-01   2.2235229349E+00   2.7799429690E+00   1.0500000000E-01     0.000  -1.
13    1    9    0    0    0   3.0230374571E-02  -8.3075859750E-01  -1.8219650610E+01   1.8238908055E+01   1.0500000000E-01     0.000  -1.
-13    1    9    0    0    0   1.5632693867E-01  -7.6904861502E-01  -1.6620651971E+01   1.6639500318E+01   1.0500000000E-01     0.000   1.
</event>
<event>
 13   1  9.2978750E-05  1.2500000E+02  7.5467720E-03  1.2380620E-01
   21   -1    0    0  502  501   0.0000000000E+00   0.0000000000E+00   3.5339230035E+01   3.5339230035E+01   0.0000000000E+00     0.000  -1.
   21   -1    0    0  501  502   0.0000000000E+00   0.0000000000E+00  -1.1053579821E+02   1.1053579821E+02   0.0000000000E+00     0.000  -1.
   25    2    1    2    0    0   0.0000000000E+00   0.0000000000E+00  -7.5196568174E+01   1.4587502824E+02   1.2500000000E+02  1.051E-07  -1.
3000002    2    3    0    0    0   2.7086986912E+00  -2.4924781061E+01   2.8186464129E+01   3.9026382354E+01   1.0000000000E+01  6.302E-10  -1.
3000002    2    3    0    0    0  -2.7086986912E+00   2.4924781061E+01  -1.0338303230E+02   1.0684864589E+02   1.0000000000E+01  5.066E-10  -1.
3000001    1    4    0    0    0   2.6249606097E+00  -2.4060577284E+01   2.9016872602E+01   3.7799215508E+01   1.0000000000E+00     0.000  -1.
3000022   2   4   0   0   0   8.3738081524E-02   -8.6420377680E-01   -8.3040847314E-01   1.2271668454E+00   2.5000000000E-01   2.102555E+01   -1.
3000001    1    5    0    0    0  -4.9016804790E+00   2.1350826854E+01  -9.4660527775E+01   9.7167380316E+01   1.0000000000E+00     0.000  -1.
3000022   2   5   0   0   0   2.1929817878E+00   3.5739542071E+00   -8.7225045285E+00   9.6812655705E+00   2.5000000000E-01   6.876379E+00   0.
13    1    7    0    0    0   1.6650494891E-02  -2.6383196619E-01  -3.3042462968E-01   4.3599309773E-01   1.0500000000E-01     0.000  -1.
-13    1    7    0    0    0   6.7087586633E-02  -6.0037181061E-01  -4.9998384346E-01   7.9117374766E-01   1.0500000000E-01     0.000  -1.
13    1    9    0    0    0   1.5402768488E+00   2.4540402816E+00  -6.1091180495E+00   6.7621826963E+00   1.0500000000E-01     0.000   1.
-13    1    9    0    0    0   6.5270493904E-01   1.1199139254E+00  -2.6133864790E+00   2.9190828742E+00   1.0500000000E-01     0.000  -1.
</event>
<event>
 13   1  9.2978750E-05  1.2500000E+02  7.5467720E-03  1.2380620E-01
   21   -1    0    0  502  501   0.0000000000E+00   0.0000000000E+00   8.8815774614E+00   8.8815774614E+00   0.0000000000E+00     0.000  -1.
   21   -1    0    0  501  502   0.0000000000E+00   0.0000000000E+00  -4.3981488840E+02   4.3981488840E+02   0.0000000000E+00     0.000  -1.
   25    2    1    2    0    0   0.0000000000E+00   0.0000000000E+00  -4.3093331094E+02   4.4869646586E+02   1.2500000000E+02  2.724E-09  -1.
3000002    2    3    0    0    0  -3.1128548471E+01  -4.3745348838E+01  -3.2455703712E+02   3.2911990584E+02   1.0000000000E+01  1.453E-09   1.
3000002    2    3    0    0    0   3.1128548471E+01   4.3745348838E+01  -1.0637627382E+02   1.1957656002E+02   1.0000000000E+01  1.702E-10   1.
3000001    1    4    0    0    0  -1.6768034730E+01  -2.9462278402E+01  -1.8227322072E+02   1.8540150978E+02   1.0000000000E+00     0.000   1.
3000022   2   4   0   0   0   -1.4360513741E+01   -1.4283070436E+01   -1.4228381640E+02   1.4371839606E+02   2.5000000000E-01   6.177913E+00   0.
3000001    1    5    0    0    0   3.0876850759E+01   4.2066162997E+01  -9.8051600467E+01   1.1107681278E+02   1.0000000000E+00     0.000   1.
3000022   2   5   0   0   0   2.5169771108E-01   1.6791858410E+00   -8.3246733534E+00   8.4997472473E+00   2.5000000000E-01   9.831923E+00   0.
13    1    7    0    0    0  -5.5109470237E+00  -5.4141034419E+00  -5.4543209893E+01   5.5087710277E+01   1.0500000000E-01     0.000   1.
-13    1    7    0    0    0  -8.8495667173E+00  -8.8689669938E+00  -8.7740606507E+01   8.8630685780E+01   1.0500000000E-01     0.000  -1.
13    1    9    0    0    0   1.5439595886E-01   6.3566810766E-01  -3.3082031436E+00   3.3738916839E+00   1.0500000000E-01     0.000  -1.
-13    1    9    0    0    0   9.7301752214E-02   1.0435177334E+00  -5.0164702098E+00   5.1258555634E+00   1.0500000000E-01     0.000   1.
</event>
<event>
 13   1  9.2978750E-05  1.2500000E+02  7.5467720E-03  1.2380620E-01
   21   -1    0    0  502  501   0.0000000000E+00   0.0000000000E+00   1.3519387728E+02   1.3519387728E+02   0.0000000000E+00     0.000  -1.
   21   -1    0    0  501  502   0.0000000000E+00   0.0000000000E+00  -2.8893690148E+01   2.8893690148E+01   0.0000000000E+00     0.000  -1.
   25    2    1    2    0    0   0.0000000000E+00   0.0000000000E+00   1.0630018713E+02   1.6408756743E+02   1.2500000000E+02  5.068E-09  -1.
3000002    2    3    0    0    0   5.5502766016E+01  -1.0958794344E+01   8.5454205394E+01   1.0297122622E+02   1.0000000000E+01  1.305E-09   1.
3000002    2    3    0    0    0  -5.5502766016E+01   1.0958794344E+01   2.0845981736E+01   6.1116341214E+01   1.0000000000E+01  1.298E-09   1.
3000001    1    4    0    0    0   9.2025280654E-01  -1.5394396699E+00   3.3843940483E+00   3.9586440607E+00   1.0000000000E+00     0.000   1.
3000022   2   4   0   0   0   5.4582513209E+01   -9.4193546745E+00   8.2069811346E+01   9.9012582155E+01   2.5000000000E-01   1.133547E+01   0.
3000001    1    5    0    0    0  -5.3581913693E+01   1.2401558144E+01   2.0347277612E+01   5.8650079503E+01   1.0000000000E+00     0.000   1.
3000022   2   5   0   0   0   -1.9208523221E+00   -1.4427637997E+00   4.9870412317E-01   2.4662617111E+00   2.5000000000E-01   7.717838E+00   0.
13    1    7    0    0    0   3.3399337195E+01  -5.7444795421E+00   5.0319028558E+01   6.0667375337E+01   1.0500000000E-01     0.000   1.
-13    1    7    0    0    0   2.1183176014E+01  -3.6748751324E+00   3.1750782788E+01   3.8345206818E+01   1.0500000000E-01     0.000  -1.
13    1    9    0    0    0  -1.4792526010E+00  -1.1094139118E+00   3.7213053943E-01   1.8890456912E+00   1.0500000000E-01     0.000  -1.
-13    1    9    0    0    0  -4.4159972109E-01  -3.3334988793E-01   1.2657358374E-01   5.7721601983E-01   1.0500000000E-01     0.000   1.
</event>
<event>
 13   1  9.2978750E-05  1.2500000E+02  7.5467720E-03  1.2380620E-01
   21   -1    0    0  502  501   0.0000000000E+00   0.0000000000E+00   1.4098404841E+01   1.4098404841E+01   0.0000000000E+00     0.000  -1.
   21   -1    0    0  501  502   0.0000000000E+00   0.0000000000E+00  -2.7707035258E+02   2.7707035258E+02   0.0000000000E+00     0.000  -1.
   25    2    1    2    0    0   0.0000000000E+00   0.0000000000E+00  -2.6297194774E+02   2.9116875742E+02   1.2500000000E+02  3.211E-08  -1.
3000002    2    3    0    0    0  -3.9507415249E+01  -9.2647003993E+00  -2.3238105020E+01   4.7819243596E+01   1.0000000000E+01  8.355E-10   1.
3000002    2    3    0    0    0   3.9507415249E+01   9.2647003993E+00  -2.3973384272E+02   2.4334951382E+02   1.0000000000E+01  9.866E-10   1.
3000001    1    4    0    0    0  -1.0594228582E+01   1.8197455263E+00  -6.8257694144E+00   1.2772637987E+01   1.0000000000E+00     0.000  -1.
3000022   2   4   0   0   0   -2.8913186667E+01   -1.1084445926E+01   -1.6412335605E+01   3.5046605609E+01   2.5000000000E-01   4.468205E-02   0.
3000001    1    5    0    0    0   5.7940109657E+00  -2.0964606816E-01  -2.0177170309E+01   2.1017438384E+01   1.0000000000E+00     0.000   1.
3000022   2   5   0   0   0   3.3713404283E+01   9.4743464674E+00   -2.1955667241E+02   2.2233207544E+02   2.5000000000E-01   1.016218E+01   0.
13    1    7    0    0    0  -1.2165998947E+01  -4.7176641452E+00  -6.8693756791E+00   1.4746770243E+01   1.0500000000E-01     0.000   1.
-13    1    7    0    0    0  -1.6747187719E+01  -6.3667817803E+00  -9.5429599263E+00   2.0299835366E+01   1.0500000000E-01     0.000  -1.
13    1    9    0    0    0   9.2124644203E+00   2.5586431661E+00  -6.0092883424E+01   6.0848844021E+01   1.0500000000E-01     0.000  -1.
-13    1    9    0    0    0   2.4500939863E+01   6.9157033013E+00  -1.5946378899E+02   1.6148323142E+02   1.0500000000E-01     0.000   1.
</event>
<event>
 13   1  9.2978750E-05  1.2500000E+02  7.5467720E-03  1.2380620E-01
   21   -1    0    0  502  501   0.0000000000E+00   0.0000000000E+00   1.6501621028E+01   1.6501621028E+01   0.0000000000E+00     0.000   1.
   21   -1    0    0  501  502   0.0000000000E+00   0.0000000000E+00  -2.3671916798E+02   2.3671916798E+02   0.0000000000E+00     0.000   1.
   25    2    1    2    0    0   0.0000000000E+00   0.0000000000E+00  -2.2021754695E+02   2.5322078901E+02   1.2500000000E+02  3.135E-09  -1.
3000002    2    3    0    0    0  -1.1502687505E+01  -5.8508101694E+01  -1.4218633475E+02   1.5450716350E+02   1.0000000000E+01  1.525E-09  -1.
3000002    2    3    0    0    0   1.1502687505E+01   5.8508101694E+01  -7.8031212201E+01   9.8713625510E+01   1.0000000000E+01  7.468E-10  -1.
3000001    1    4    0    0    0  -2.3368609615E+00  -3.3608662841E+01  -8.6062628491E+01   9.2427155965E+01   1.0000000000E+00     0.000   1.
3000022   2   4   0   0   0   -9.1658265433E+00   -2.4899438853E+01   -5.6123706258E+01   6.2080007535E+01   2.5000000000E-01   4.177115E-01   0.
3000001    1    5    0    0    0   1.0653861767E+01   4.7091728666E+01  -6.8520648211E+01   8.3828485079E+01   1.0000000000E+00     0.000  -1.
3000022   2   5   0   0   0   8.4882573802E-01   1.1416373027E+01   -9.5105639905E+00   1.4885140431E+01   2.5000000000E-01   1.256523E+00   0.
13    1    7    0    0    0  -4.6908970453E+00  -1.2565885992E+01  -2.8303036495E+01   3.1320582780E+01   1.0500000000E-01     0.000   1.
-13    1    7    0    0    0  -4.4749294980E+00  -1.2333552862E+01  -2.7820669763E+01   3.0759424755E+01   1.0500000000E-01     0.000  -1.
13    1    9    0    0    0   5.4309032354E-01   6.5062305317E+00  -5.4599615152E+00   8.5116501091E+00   1.0500000000E-01     0.000  -1.
-13    1    9    0    0    0   3.0573541449E-01   4.9101424958E+00  -4.0506024753E+00   6.3734903221E+00   1.0500000000E-01     0.000   1.
</event>
<event>
 13   1  9.2978750E-05  1.2500000E+02  7.5467720E-03  1.2380620E-01
   21   -1    0    0  502  501   0.0000000000E+00   0.0000000000E+00   3.3916314581E+02   3.3916314581E+02   0.0000000000E+00     0.000  -1.
   21   -1    0    0  501  502   0.0000000000E+00   0.0000000000E+00  -1.1517318577E+01   1.1517318577E+01   0.0000000000E+00     0.000  -1.
   25    2    1    2    0    0   0.0000000000E+00   0.0000000000E+00   3.2764582723E+02   3.5068046439E+02   1.2500000000E+02  2.103E-08  -1.
3000002    2    3    0    0    0   4.4880221839E+01   4.2034550551E+01   1.7788158761E+02   1.8847545454E+02   1.0000000000E+01  2.662E-09   1.
3000002    2    3    0    0    0  -4.4880221839E+01  -4.2034550551E+01   1.4976423962E+02   1.6220500985E+02   1.0000000000E+01  2.125E-10   1.
3000001    1    4    0    0    0   4.0935657847E+01   3.7987281793E+01   1.5085780572E+02   1.6086590443E+02   1.0000000000E+00     0.000   1.
3000022   2   4   0   0   0   3.9445639920E+00   4.0472687585E+00   2.7023781892E+01   2.7609550109E+01   2.5000000000E-01   4.233404E-01   0.
3000001    1    5    0    0    0  -6.9690105303E+00  -8.7143920023E+00   1.9273685236E+01   2.2293108314E+01   1.0000000000E+00     0.000   1.
3000022   2   5   0   0   0   -3.7911211309E+01   -3.3320158549E+01   1.3049055438E+02   1.3991190154E+02   2.5000000000E-01   5.467866E+00   0.
13    1    7    0    0    0   2.8903680836E+00   2.9125248896E+00   1.9638666399E+01   2.0063032468E+01   1.0500000000E-01     0.000  -1.
-13    1    7    0    0    0   1.0541959084E+00   1.1347438689E+00   7.3851154935E+00   7.5465176415E+00   1.0500000000E-01     0.000   1.
13    1    9    0    0    0  -1.9223534636E+01  -1.6806298060E+01   6.5987073547E+01   7.0755217749E+01   1.0500000000E-01     0.000  -1.
-13    1    9    0    0    0  -1.8687676672E+01  -1.6513860489E+01   6.4503480838E+01   6.9156683790E+01   1.0500000000E-01     0.000   1.
</event>
<event>
 13   1  9.2978750E-05  1.2500000E+02  7.5467720E-03  1.2380620E-01
   21   -1    0    0  502  501   0.0000000000E+00   0.0000000000E+00   7.3752774202E+00   7.3752774202E+00   0.0000000000E+00     0.000  -1.
   21   -1    0    0  501  502   0.0000000000E+00   0.0000000000E+00  -5.2964109381E+02   5.2964109381E+02   0.0000000000E+00     0.000  -1.
   25    2    1    2    0    0   0.0000000000E+00   0.0000000000E+00  -5.2226581639E+02   5.3701637123E+02   1.2500000000E+02  7.098E-08  -1.
3000002    2    3    0    0    0  -3.1259462812E+01  -5.2675761854E+01  -2.9280798136E+02   2.9931322031E+02   1.0000000000E+01  1.211E-09  -1.
3000002    2    3    0    0    0   3.1259462812E+01   5.2675761854E+01  -2.2945783503E+02   2.3770315092E+02   1.0000000000E+01  1.931E-11  -1.
3000001    1    4    0    0    0  -3.4586926459E-01  -5.5852988693E+00  -3.0409248428E+01   3.0936023968E+01   1.0000000000E+00     0.000   1.
3000022   2   4   0   0   0   -3.0913593547E+01   -4.7090462985E+01   -2.6239873294E+02   2.6837719634E+02   2.5000000000E-01   1.836612E+00   0.
3000001    1    5    0    0    0   9.4904850675E+00   1.9101594247E+01  -9.7547784983E+01   9.9857451223E+01   1.0000000000E+00     0.000   1.
3000022   2   5   0   0   0   2.1768977744E+01   3.3574167607E+01   -1.3191005004E+02   1.3784569970E+02   2.5000000000E-01   1.820819E+01   0.
13    1    7    0    0    0  -9.7751326270E+00  -1.4839286903E+01  -8.2970142133E+01   8.4851712795E+01   1.0500000000E-01     0.000  -1.
-13    1    7    0    0    0  -2.1138460920E+01  -3.2251176081E+01  -1.7942859080E+02   1.8352548355E+02   1.0500000000E-01     0.000   1.
13    1    9    0    0    0   1.0396423190E+01   1.5911517086E+01  -6.2691677846E+01   6.5509690026E+01   1.0500000000E-01     0.000   1.
-13    1    9    0    0    0   1.1372554554E+01   1.7662650521E+01  -6.9218372197E+01   7.2336009671E+01   1.0500000000E-01     0.000  -1.
</event>
<event>
 13   1  9.2978750E-05  1.2500000E+02  7.5467720E-03  1.2380620E-01
   21   -1    0    0  502  501   0.0000000000E+00   0.0000000000E+00   2.3813252410E+01   2.3813252410E+01   0.0000000000E+00     0.000  -1.
   21   -1    0    0  501  502   0.0000000000E+00   0.0000000000E+00  -1.6403681164E+02   1.6403681164E+02   0.0000000000E+00     0.000  -1.
   25    2    1    2    0    0   0.0000000000E+00   0.0000000000E+00  -1.4022355923E+02   1.8785006405E+02   1.2500000000E+02  2.822E-08  -1.
3000002    2    3    0    0    0  -1.0044712810E+01   2.2112024563E+00   2.1305742500E+01   2.5685021612E+01   1.0000000000E+01  6.376E-10   1.
3000002    2    3    0    0    0   1.0044712810E+01  -2.2112024563E+00  -1.6152930173E+02   1.6216504244E+02   1.0000000000E+01  3.084E-10   1.
3000001    1    4    0    0    0  -4.8457024382E+00  -3.5432675719E+00   1.2792462637E+01   1.4166251357E+01   1.0000000000E+00     0.000  -1.
3000022   2   4   0   0   0   -5.1990103720E+00   5.7544700282E+00   8.5132798627E+00   1.1518770254E+01   2.5000000000E-01   1.073922E+01   0.
3000001    1    5    0    0    0   3.4147619247E+00  -5.5546315181E+00  -9.3160052894E+01   9.3393308034E+01   1.0000000000E+00     0.000   1.
3000022   2   5   0   0   0   6.6299508854E+00   3.3434290618E+00   -6.8369248835E+01   6.8771734404E+01   2.5000000000E-01   5.107999E-01   0.
13    1    7    0    0    0  -1.8878585865E+00   2.1358305026E+00   3.2050462279E+00   4.2905860091E+00   1.0500000000E-01     0.000  -1.
-13    1    7    0    0    0  -3.3111517855E+00   3.6186395256E+00   5.3082336348E+00   7.2281842453E+00   1.0500000000E-01     0.000   1.
13    1    9    0    0    0   3.9835620098E+00   2.0073845819E+00  -4.1648056050E+01   4.1886393458E+01   1.0500000000E-01     0.000   1.
-13    1    9    0    0    0   2.6463888757E+00   1.3360444798E+00  -2.6721192785E+01   2.6885340946E+01   1.0500000000E-01     0.000  -1.
</event>
<event>
 13   1  9.2978750E-05  1.2500000E+02  7.5467720E-03  1.2380620E-01
   21   -1    0    0  502  501   0.0000000000E+00   0.0000000000E+00   9.5984918946E+01   9.5984918946E+01   0.0000000000E+00     0.000   1.
   21   -1    0    0  501  502   0.0000000000E+00   0.0000000000E+00  -4.0696497355E+01   4.0696497355E+01   0.0000000000E+00     0.000   1.
   25    2    1    2    0    0   0.0000000000E+00   0.0000000000E+00   5.5288421591E+01   1.3668141630E+02   1.2500000000E+02  3.240E-08  -1.
3000002    2    3    0    0    0  -3.0048773340E+00   5.9332499848E+01   4.5838766941E+01   7.5700511100E+01   1.0000000000E+01  2.278E-11  -1.
3000002    2    3    0    0    0   3.0048773340E+00  -5.9332499848E+01   9.4496546499E+00   6.0980905200E+01   1.0000000000E+01  7.707E-11  -1.
3000001    1    4    0    0    0  -6.8634379441E-01   1.4861844479E+00   1.0282453080E-01   1.9210374544E+00   1.0000000000E+00     0.000  -1.
3000022   2   4   0   0   0   -2.3185335396E+00   5.7846315401E+01   4.5735942410E+01   7.3779473645E+01   2.5000000000E-01   7.066347E+00   0.
3000001    1    5    0    0    0  -3.4014628283E+00  -2.4656372514E+01   2.4610946998E+00   2.5031253305E+01   1.0000000000E+00     0.000   1.
3000022   2   5   0   0   0   6.4063401624E+00   -3.4676127335E+01   6.9885599501E+00   3.5949651895E+01   2.5000000000E-01   6.107674E+00   0.
13    1    7    0    0    0  -1.3872027820E+00   3.3148055106E+01   2.6173268364E+01   4.2258358827E+01   1.0500000000E-01     0.000  -1.
-13    1    7    0    0    0  -9.3133075760E-01   2.4698260294E+01   1.9562674046E+01   3.1521114818E+01   1.0500000000E-01     0.000   1.
13    1    9    0    0    0   3.2090988894E+00  -1.7118487143E+01   3.4006569961E+00   1.7745884333E+01   1.0500000000E-01     0.000   1.
-13    1    9    0    0    0   3.1972412730E+00  -1.7557640192E+01   3.5879029540E+00   1.8203767562E+01   1.0500000000E-01     0.000  -1.
</event>
<event>
 13   1  9.2978750E-05  1.2500000E+02  7.5467720E-03  1.2380620E-01
   21   -1    0    0  502  501   0.0000000000E+00   0.0000000000E+00   1.4549179587E+01   1.4549179587E+01   0.0000000000E+00     0.000   1.
   21   -1    0    0  501  502   0.0000000000E+00   0.0000000000E+00  -2.6848592917E+02   2.6848592917E+02   0.0000000000E+00     0.000   1.
   25    2    1    2    0    0   0.0000000000E+00   0.0000000000E+00  -2.5393674959E+02   2.8303510876E+02   1.2500000000E+02  4.125E-08  -1.
3000002    2    3    0    0    0   5.1020223437E+01  -3.3430599940E+01  -1.0602141618E+02   1.2272411703E+02   1.0000000000E+01  2.677E-10   1.
3000002    2    3    0    0    0  -5.1020223437E+01   3.3430599940E+01  -1.4791533341E+02   1.6031099173E+02   1.0000000000E+01  2.290E-10   1.
3000001    1    4    0    0    0   1.3761228125E+01  -1.3169154046E+01  -2.7276238851E+01   3.3283497768E+01   1.0000000000E+00     0.000   1.
3000022   2   4   0   0   0   3.7258995312E+01   -2.0261445893E+01   -7.8745177333E+01   8.9440619265E+01   2.5000000000E-01   7.917895E+00   0.
3000001    1    5    0    0    0  -4.4523048125E+01   2.9841820109E+01  -1.2010005532E+02   1.3152132652E+02   1.0000000000E+00     0.000   1.
3000022   2   5   0   0   0   -6.4971753120E+00   3.5887798309E+00   -2.7815278090E+01   2.8789665211E+01   2.5000000000E-01   9.834078E+00   0.
13    1    7    0    0    0   1.3757201402E+01  -7.4989113931E+00  -2.9212297425E+01   3.3149111728E+01   1.0500000000E-01     0.000  -1.
-13    1    7    0    0    0   2.3501793910E+01  -1.2762534500E+01  -4.9532879908E+01   5.6291507537E+01   1.0500000000E-01     0.000   1.
13    1    9    0    0    0  -2.7430587118E+00   1.5414658636E+00  -1.1557412211E+01   1.1978534557E+01   1.0500000000E-01     0.000   1.
-13    1    9    0    0    0  -3.7541166001E+00   2.0473139673E+00  -1.6257865879E+01   1.6811130654E+01   1.0500000000E-01     0.000  -1.
</event>
<event>
 13   1  9.2978750E-05  1.2500000E+02  7.5467720E-03  1.2380620E-01
   21   -1    0    0  502  501   0.0000000000E+00   0.0000000000E+00   1.6652239060E+02   1.6652239060E+02   0.0000000000E+00     0.000  -1.
   21   -1    0    0  501  502   0.0000000000E+00   0.0000000000E+00  -2.3457806400E+01   2.3457806400E+01   0.0000000000E+00     0.000  -1.
   25    2    1    2    0    0   0.0000000000E+00   0.0000000000E+00   1.4306458420E+02   1.8998019700E+02   1.2500000000E+02  3.933E-09  -1.
3000002    2    3    0    0    0   4.4021606168E+01   1.1997456505E+01   8.4193407184E+00   4.7462891509E+01   1.0000000000E+01  4.355E-10   1.
3000002    2    3    0    0    0  -4.4021606168E+01  -1.1997456505E+01   1.3464524348E+02   1.4251730549E+02   1.0000000000E+01  1.304E-09   1.
3000001    1    4    0    0    0   4.2956725574E+01   1.2254147341E+01   6.3803481113E+00   4.5134834010E+01   1.0000000000E+00     0.000  -1.
3000022   2   4   0   0   0   1.0648805940E+00   -2.5669083512E-01   2.0389926072E+00   2.3280574985E+00   2.5000000000E-01   4.028122E+00   0.
3000001    1    5    0    0    0  -4.0103299912E+00  -4.3755929473E-02   6.1770937442E+00   7.4324389230E+00   1.0000000000E+00     0.000  -1.
3000022   2   5   0   0   0   -4.0011276177E+01   -1.1953700576E+01   1.2846814974E+02   1.3508486657E+02   2.5000000000E-01   2.428788E+00   0.
13    1    7    0    0    0   7.6293213591E-01  -2.2002924314E-01   1.4944215280E+00   1.6955232276E+00   1.0500000000E-01     0.000   1.
-13    1    7    0    0    0   3.0194845810E-01  -3.6661591982E-02   5.4457107916E-01   6.3253427095E-01   1.0500000000E-01     0.000  -1.
13    1    9    0    0    0  -1.5912447720E+01  -4.7309388579E+00   5.0881661675E+01   5.3521419027E+01   1.0500000000E-01     0.000  -1.
-13    1    9    0    0    0  -2.4098828458E+01  -7.2227617181E+00   7.7586488063E+01   8.1563447541E+01   1.0500000000E-01     0.000   1.
</event>
<event>
 13   1  9.2978750E-05  1.2500000E+02  7.5467720E-03  1.2380620E-01
   21   -1    0    0  502  501   0.0000000000E+00   0.0000000000E+00   5.5627580072E+02   5.5627580072E+02   0.0000000000E+00     0.000  -1.
   21   -1    0    0  501  502   0.0000000000E+00   0.0000000000E+00  -7.0221461997E+00   7.0221461997E+00   0.0000000000E+00     0.000  -1.
   25    2    1    2    0    0   0.0000000000E+00   0.0000000000E+00   5.4925365452E+02   5.6329794692E+02   1.2500000000E+02  4.320E-08  -1.
3000002    2    3    0    0    0  -5.0731871301E+01  -3.4776921232E+01   2.5297132887E+02   2.6053339564E+02   1.0000000000E+01  1.410E-11  -1.
3000002    2    3    0    0    0   5.0731871301E+01   3.4776921232E+01   2.9628232565E+02   3.0276455128E+02   1.0000000000E+01  3.152E-10  -1.
3000001    1    4    0    0    0  -1.9694951731E+01  -1.7814192100E+01   1.2275502725E+02   1.2559869935E+02   1.0000000000E+00     0.000  -1.
3000022   2   4   0   0   0   -3.1036919570E+01   -1.6962729133E+01   1.3021630162E+02   1.3493469629E+02   2.5000000000E-01   1.099279E+00   0.
3000001    1    5    0    0    0   4.3260058686E+01   2.9743149934E+01   2.6747743480E+02   2.7258258523E+02   1.0000000000E+00     0.000  -1.
3000022   2   5   0   0   0   7.4718126149E+00   5.0337712989E+00   2.8804890857E+01   3.0181966048E+01   2.5000000000E-01   7.238896E+00   0.
13    1    7    0    0    0  -1.2199175630E+01  -6.6460328683E+00   5.0918417049E+01   5.2779596992E+01   1.0500000000E-01     0.000   1.
-13    1    7    0    0    0  -1.8837743939E+01  -1.0316696264E+01   7.9297884567E+01   8.2155099296E+01   1.0500000000E-01     0.000  -1.
13    1    9    0    0    0   5.5556850599E+00   3.7159289295E+00   2.1293669019E+01   2.2318268965E+01   1.0500000000E-01     0.000  -1.
-13    1    9    0    0    0   1.9161275550E+00   1.3178423694E+00   7.5112218379E+00   7.8636970831E+00   1.0500000000E-01     0.000   1.
</event>
<event>
 13   1  9.2978750E-05  1.2500000E+02  7.5467720E-03  1.2380620E-01
   21   -1    0    0  502  501   0.0000000000E+00   0.0000000000E+00   1.8857907725E+01   1.8857907725E+01   0.0000000000E+00     0.000   1.
   21   -1    0    0  501  502   0.0000000000E+00   0.0000000000E+00  -2.0714121932E+02   2.0714121932E+02   0.0000000000E+00     0.000   1.
   25    2    1    2    0    0   0.0000000000E+00   0.0000000000E+00  -1.8828331159E+02   2.2599912704E+02   1.2500000000E+02  2.384E-08  -1.
3000002    2    3    0    0    0   1.8841581010E+01   5.3906759616E+01  -5.1921782694E+01   7.7825544812E+01   1.0000000000E+01  1.511E-09   1.
3000002    2    3    0    0    0  -1.8841581010E+01  -5.3906759616E+01  -1.3636152890E+02   1.4817358223E+02   1.0000000000E+01  5.502E-10   1.
3000001    1    4    0    0    0   2.1167456414E+00   2.7208270044E+00  -1.0338085180E+00   3.7352739860E+00   1.0000000000E+00     0.000  -1.
3000022   2   4   0   0   0   1.6724835369E+01   5.1185932612E+01   -5.0887974176E+01   7.4090270826E+01   2.5000000000E-01   8.871461E+00   0.
3000001    1    5    0    0    0  -1.0294716049E+01  -3.9506351328E+01  -8.8538117024E+01   9.7502467353E+01   1.0000000000E+00     0.000   1.
3000022   2   5   0   0   0   -8.5468649612E+00   -1.4400408288E+01   -4.7823411873E+01   5.0671114875E+01   2.5000000000E-01   3.809788E+00   0.
13    1    7    0    0    0   5.6346042406E+00   1.7420023596E+01  -1.7294409417E+01   2.5185583359E+01   1.0500000000E-01     0.000   1.
-13    1    7    0    0    0   1.1090231128E+01   3.3765909015E+01  -3.3593564758E+01   4.8904687467E+01   1.0500000000E-01     0.000  -1.
13    1    9    0    0    0  -6.3122443846E+00  -1.0571228483E+01  -3.5185212118E+01   3.7277412431E+01   1.0500000000E-01     0.000  -1.
-13    1    9    0    0    0  -2.2346205766E+00  -3.8291798048E+00  -1.2638199755E+01   1.3393702444E+01   1.0500000000E-01     0.000   1.
</event>
<event>
 13   1  9.2978750E-05  1.2500000E+02  7.5467720E-03  1.2380620E-01
   21   -1    0    0  502  501   0.0000000000E+00   0.0000000000E+00   9.8002692139E+00   9.8002692139E+00   0.0000000000E+00     0.000  -1.
   21   -1    0    0  501  502   0.0000000000E+00   0.0000000000E+00  -3.9858598930E+02   3.9858598930E+02   0.0000000000E+00     0.000  -1.
   25    2    1    2    0    0   0.0000000000E+00   0.0000000000E+00  -3.8878572008E+02   4.0838625851E+02   1.2500000000E+02  6.926E-09  -1.
3000002    2    3    0    0    0  -3.1480989403E+01  -2.4776106621E+01  -3.4767969326E+02   3.5012294592E+02   1.0000000000E+01  7.951E-10   1.
3000002    2    3    0    0    0   3.1480989403E+01   2.4776106621E+01  -4.1106026816E+01   5.8263312588E+01   1.0000000000E+01  1.600E-09   1.
3000001    1    4    0    0    0  -1.7464792136E+01  -7.6495616819E+00  -1.7089567513E+02   1.7195890944E+02   1.0000000000E+00     0.000  -1.
3000022   2   4   0   0   0   -1.4016197267E+01   -1.7126544939E+01   -1.7678401814E+02   1.7816403648E+02   2.5000000000E-01   6.113585E+00   0.
3000001    1    5    0    0    0   7.1991686040E+00   1.0652545154E+01  -9.7696026321E+00   1.6178686054E+01   1.0000000000E+00     0.000  -1.
3000022   2   5   0   0   0   2.4281820799E+01   1.4123561467E+01   -3.1336424184E+01   4.2084626533E+01   2.5000000000E-01   1.490749E+01   0.
13    1    7    0    0    0  -6.2212010889E+00  -7.6286634284E+00  -7.9151246180E+01   7.9761084782E+01   1.0500000000E-01     0.000  -1.
-13    1    7    0    0    0  -7.7949961778E+00  -9.4978815107E+00  -9.7632771955E+01   9.8402951700E+01   1.0500000000E-01     0.000   1.
13    1    9    0    0    0   1.6843573047E+01   9.8441348841E+00  -2.1799182479E+01   2.9254543687E+01   1.0500000000E-01     0.000  -1.
-13    1    9    0    0    0   7.4382477520E+00   4.2794265825E+00  -9.5372417050E+00   1.2830082846E+01   1.0500000000E-01     0.000   1.
</event>
<event>
 13   1  9.2978750E-05  1.2500000E+02  7.5467720E-03  1.2380620E-01
   21   -1    0    0  502  501   0.0000000000E+00   0.0000000000E+00   1.0157686636E+02   1.0157686636E+02   0.0000000000E+00     0.000  -1.
   21   -1    0    0  501  502   0.0000000000E+00   0.0000000000E+00  -3.8456098715E+01   3.8456098715E+01   0.0000000000E+00     0.000  -1.
   25    2    1    2    0    0   0.0000000000E+00   0.0000000000E+00   6.3120767647E+01   1.4003296508E+02   1.2500000000E+02  7.272E-10  -1.
3000002    2    3    0    0    0  -3.9119794773E+01  -3.4692410962E+01  -5.1242468603E+00   5.3480647222E+01   1.0000000000E+01  9.160E-11  -1.
3000002    2    3    0    0    0   3.9119794773E+01   3.4692410962E+01   6.8245014507E+01   8.6552317858E+01   1.0000000000E+01  1.062E-10  -1.
3000001    1    4    0    0    0  -1.4715079989E+01  -1.3353593624E+01  -6.7793893981E+00   2.1019328305E+01   1.0000000000E+00     0.000   1.
3000022   2   4   0   0   0   -2.4404714784E+01   -2.1338817337E+01   1.6551425378E+00   3.2461318918E+01   2.5000000000E-01   7.236619E+00   0.
3000001    1    5    0    0    0   3.4151143147E+01   2.9133282329E+01   6.3278906483E+01   7.7590390663E+01   1.0000000000E+00     0.000  -1.
3000022   2   5   0   0   0   4.9686516259E+00   5.5591286326E+00   4.9661080239E+00   8.9619271944E+00   2.5000000000E-01   2.545748E+00   0.
13    1    7    0    0    0  -9.6268644347E+00  -8.4419058822E+00   5.9388699204E-01   1.2818191001E+01   1.0500000000E-01     0.000  -1.
-13    1    7    0    0    0  -1.4777850350E+01  -1.2896911455E+01   1.0612555458E+00   1.9643127917E+01   1.0500000000E-01     0.000   1.
13    1    9    0    0    0   3.3353026783E+00   3.6696035651E+00   3.3432609827E+00   5.9815259992E+00   1.0500000000E-01     0.000  -1.
-13    1    9    0    0    0   1.6333489476E+00   1.8895250675E+00   1.6228470412E+00   2.9804011952E+00   1.0500000000E-01     0.000   1.
</event>
<event>
 13   1  9.2978750E-05  1.2500000E+02  7.5467720E-03  1.2380620E-01
   21   -1    0    0  502  501   0.0000000000E+00   0.0000000000E+00   8.1303773751E+00   8.1303773751E+00   0.0000000000E+00     0.000   1.
   21   -1    0    0  501  502   0.0000000000E+00   0.0000000000E+00  -4.8045125334E+02   4.8045125334E+02   0.0000000000E+00     0.000   1.
   25    2    1    2    0    0   0.0000000000E+00   0.0000000000E+00  -4.7232087596E+02   4.8858163071E+02   1.2500000000E+02  1.781E-08  -1.
3000002    2    3    0    0    0  -3.0919288302E+01  -5.2112832762E+01  -1.9083012648E+02   2.0046916696E+02   1.0000000000E+01  6.269E-10  -1.
3000002    2    3    0    0    0   3.0919288302E+01   5.2112832762E+01  -2.8149074948E+02   2.8811246375E+02   1.0000000000E+01  1.532E-10  -1.
3000001    1    4    0    0    0  -2.1738329592E+01  -4.1423366796E+01  -1.3465657169E+02   1.4255470034E+02   1.0000000000E+00     0.000   1.
3000022   2   4   0   0   0   -9.1809587101E+00   -1.0689465967E+01   -5.6173554792E+01   5.7914466616E+01   2.5000000000E-01   3.362404E+01   0.
3000001    1    5    0    0    0   2.9809185531E+01   4.8411376650E+01  -2.7164747661E+02   2.7753486354E+02   1.0000000000E+00     0.000  -1.
3000022   2   5   0   0   0   1.1101027711E+00   3.7014561122E+00   -9.8432728722E+00   1.0577600217E+01   2.5000000000E-01   3.478736E+00   0.
13    1    7    0    0    0  -4.5037695364E+00  -5.1859242113E+00  -2.7150165229E+01   2.8005718112E+01   1.0500000000E-01     0.000  -1.
-13    1    7    0    0    0  -4.6771891736E+00  -5.5035417556E+00  -2.9023389562E+01   2.9908748505E+01   1.0500000000E-01     0.000   1.
13    1    9    0    0    0   3.7361593057E-01   1.1691992751E+00  -3.2570638075E+00   3.4822557997E+00   1.0500000000E-01     0.000   1.
-13    1    9    0    0    0   7.3648684050E-01   2.5322568370E+00  -6.5862090647E+00   7.0953444172E+00   1.0500000000E-01     0.000  -1.
</event>
<event>
 13   1  9.2978750E-05  1.2500000E+02  7.5467720E-03  1.2380620E-01
   21   -1    0    0  502  501   0.0000000000E+00   0.0000000000E+00   6.7439986349E+02   6.7439986349E+02   0.0000000000E+00     0.000  -1.
   21   -1    0    0  501  502   0.0000000000E+00   0.0000000000E+00  -5.7921868189E+00   5.7921868189E+00   0.0000000000E+00     0.000  -1.
   25    2    1    2    0    0   0.0000000000E+00   0.0000000000E+00   6.6860767667E+02   6.8019205031E+02   1.2500000000E+02  1.948E-08  -1.
3000002    2    3    0    0    0  -5.9276635349E+01   1.6983422437E+01   3.4531386272E+02   3.5091853744E+02   1.0000000000E+01  1.364E-09   1.
3000002    2    3    0    0    0   5.9276635349E+01  -1.6983422437E+01   3.2329381395E+02   3.2927351287E+02   1.0000000000E+01  7.276E-10   1.
3000001    1    4    0    0    0  -1.3998140838E+01   7.1929847878E+00   7.2031205989E+01   7.3737247123E+01   1.0000000000E+00     0.000   1.
3000022   2   4   0   0   0   -4.5278494512E+01   9.7904376496E+00   2.7328265673E+02   2.7718129032E+02   2.5000000000E-01   3.401572E+00   0.
3000001    1    5    0    0    0   2.7317821179E+01  -1.0867666298E+01   1.7460948054E+02   1.7707015621E+02   1.0000000000E+00     0.000   1.
3000022   2   5   0   0   0   3.1958814170E+01   -6.1157561397E+00   1.4868433341E+02   1.5220335666E+02   2.5000000000E-01   3.350512E+00   0.
13    1    7    0    0    0  -1.0880697215E+01   2.3522259076E+00   6.5555588294E+01   6.6494125457E+01   1.0500000000E-01     0.000   1.
-13    1    7    0    0    0  -3.4397797296E+01   7.4382117420E+00   2.0772706843E+02   2.1068716486E+02   1.0500000000E-01     0.000  -1.
13    1    9    0    0    0   1.1972430106E+01  -2.3359527091E+00   5.5548130292E+01   5.6871799353E+01   1.0500000000E-01     0.000   1.
-13    1    9    0    0    0   1.9986384064E+01  -3.7798034306E+00   9.3136203118E+01   9.5331557305E+01   1.0500000000E-01     0.000  -1.
</event>
<event>
 13   1  9.2978750E-05  1.2500000E+02  7.5467720E-03  1.2380620E-01
   21   -1    0    0  502  501   0.0000000000E+00   0.0000000000E+00   3.1511562839E+01   3.1511562839E+01   0.0000000000E+00     0.000   1.
   21   -1    0    0  501  502   0.0000000000E+00   0.0000000000E+00  -1.2396243309E+02   1.2396243309E+02   0.0000000000E+00     0.000   1.
   25    2    1    2    0    0   0.0000000000E+00   0.0000000000E+00  -9.2450870251E+01   1.5547399593E+02   1.2500000000E+02  1.047E-07  -1.
3000002    2    3    0    0    0  -3.1300950972E+01   4.1730027101E+01  -8.7197107514E+01   1.0210034404E+02   1.0000000000E+01  7.888E-10  -1.
3000002    2    3    0    0    0   3.1300950972E+01  -4.1730027101E+01  -5.2537627369E+00   5.3373651893E+01   1.0000000000E+01  2.510E-10  -1.
3000001    1    4    0    0    0  -1.2272783402E+01   1.7492823099E+01  -2.6749812161E+01   3.4251606139E+01   1.0000000000E+00     0.000  -1.
3000022   2   4   0   0   0   -1.9028167570E+01   2.4237204001E+01   -6.0447295353E+01   6.7848737898E+01   2.5000000000E-01   6.860666E+00   0.
3000001    1    5    0    0    0   1.4528821142E+01  -2.7240722171E+01  -4.3065796167E+00   3.1187981919E+01   1.0000000000E+00     0.000  -1.
3000022   2   5   0   0   0   1.6772129830E+01   -1.4489304930E+01   -9.4718312023E-01   2.2185669975E+01   2.5000000000E-01   1.030519E+00   0.
13    1    7    0    0    0  -1.1984595635E+01   1.5359348076E+01  -3.8189808802E+01   4.2872049486E+01   1.0500000000E-01     0.000   1.
-13    1    7    0    0    0  -7.0435719347E+00   8.8778559255E+00  -2.2257486551E+01   2.4976688411E+01   1.0500000000E-01     0.000  -1.
13    1    9    0    0    0   1.0697357197E+01  -9.1896565891E+00  -5.5892987628E-01   1.4114059191E+01   1.0500000000E-01     0.000   1.
-13    1    9    0    0    0   6.0747726324E+00  -5.2996483409E+00  -3.8825324395E-01   8.0716107843E+00   1.0500000000E-01     0.000  -1.
</event>
<event>
 13   1  9.2978750E-05  1.2500000E+02  7.5467720E-03  1.2380620E-01
   21   -1    0    0  502  501   0.0000000000E+00   0.0000000000E+00   4.5357700800E+01   4.5357700800E+01   0.0000000000E+00     0.000   1.
   21   -1    0    0  501  502   0.0000000000E+00   0.0000000000E+00  -8.6120987861E+01   8.6120987861E+01   0.0000000000E+00     0.000   1.
   25    2    1    2    0    0   0.0000000000E+00   0.0000000000E+00  -4.0763287062E+01   1.3147868866E+02   1.2500000000E+02  3.159E-09  -1.
3000002    2    3    0    0    0   7.3646536140E+00   5.6725973795E+01  -4.4691782690E+01   7.3276392282E+01   1.0000000000E+01  1.170E-10  -1.
3000002    2    3    0    0    0  -7.3646536140E+00  -5.6725973795E+01   3.9284956278E+00   5.8202296378E+01   1.0000000000E+01  1.584E-09  -1.
3000001    1    4    0    0    0   7.8714925538E+00   2.3074928016E+01  -1.8029129723E+01   3.0339120233E+01   1.0000000000E+00     0.000   1.
3000022   2   4   0   0   0   -5.0683893978E-01   3.3651045778E+01   -2.6662652967E+01   4.2937272048E+01   2.5000000000E-01   1.127384E+01   0.
3000001    1    5    0    0    0  -4.6694833666E+00  -1.0816559659E+01  -1.3961749988E+00   1.1905937275E+01   1.0000000000E+00     0.000  -1.
3000022   2   5   0   0   0   -2.6951702474E+00   -4.5909414136E+01   5.3246706266E+00   4.6296359104E+01   2.5000000000E-01   2.138272E+00   0.
13    1    7    0    0    0  -2.2494956872E-01   1.6921081135E+01  -1.3329022509E+01   2.1541760725E+01   1.0500000000E-01     0.000  -1.
-13    1    7    0    0    0  -2.8188937106E-01   1.6729964643E+01  -1.3333630458E+01   2.1395511323E+01   1.0500000000E-01     0.000   1.
13    1    9    0    0    0  -1.2003660349E+00  -1.9955921551E+01   2.3743378337E+00   2.0132764061E+01   1.0500000000E-01     0.000  -1.
-13    1    9    0    0    0  -1.4948042126E+00  -2.5953492585E+01   2.9503327929E+00   2.6163595043E+01   1.0500000000E-01     0.000   1.
</event>
<event>
 13   1  9.2978750E-05  1.2500000E+02  7.5467720E-03  1.2380620E-01
   21   -1    0    0  502  501   0.0000000000E+00   0.0000000000E+00   4.3347221451E+01   4.3347221451E+01   0.0000000000E+00     0.000  -1.
   21   -1    0    0  501  502   0.0000000000E+00   0.0000000000E+00  -9.0115349248E+01   9.0115349248E+01   0.0000000000E+00     0.000  -1.
   25    2    1    2    0    0   0.0000000000E+00   0.0000000000E+00  -4.6768127797E+01   1.3346257070E+02   1.2500000000E+02  1.101E-08  -1.
3000002    2    3    0    0    0   5.9723739949E+01  -1.0705438325E+00  -6.9061949449E+00   6.0957089057E+01   1.0000000000E+01  3.905E-10  -1.
3000002    2    3    0    0    0  -5.9723739949E+01   1.0705438325E+00  -3.9861932852E+01   7.2505481643E+01   1.0000000000E+01  7.801E-10  -1.
3000001    1    4    0    0    0   3.5593639093E+01   4.0444820451E+00  -2.7515870740E+00   3.5942123064E+01   1.0000000000E+00     0.000  -1.
3000022   2   4   0   0   0   2.4130100856E+01   -5.1150258776E+00   -4.1546078709E+00   2.5014965993E+01   2.5000000000E-01   3.552006E+00   0.
3000001    1    5    0    0    0  -4.4583442877E+01  -8.5252446108E-01  -2.4674213659E+01   5.0972806440E+01   1.0000000000E+00     0.000  -1.
3000022   2   5   0   0   0   -1.5140297072E+01   1.9230682936E+00   -1.5187719194E+01   2.1532675203E+01   2.5000000000E-01   1.041816E+00   0.
13    1    7    0    0    0   7.0007042115E+00  -1.4414565108E+00  -1.2144292059E+00   7.2507599344E+00   1.0500000000E-01     0.000  -1.
-13    1    7    0    0    0   1.7129396644E+01  -3.6735693668E+00  -2.9401786649E+00   1.7764206058E+01   1.0500000000E-01     0.000   1.
13    1    9    0    0    0  -8.7661429819E+00   1.1634572876E+00  -8.8584683876E+00   1.2517283364E+01   1.0500000000E-01     0.000  -1.
-13    1    9    0    0    0  -6.3741540902E+00   7.5961100599E-01  -6.3292508060E+00   9.0153918391E+00   1.0500000000E-01     0.000   1.
</event>
<event>
 13   1  9.2978750E-05  1.2500000E+02  7.5467720E-03  1.2380620E-01
   21   -1    0    0  502  501   0.0000000000E+00   0.0000000000E+00   1.9227594964E+01   1.9227594964E+01   0.0000000000E+00     0.000  -1.
   21   -1    0    0  501  502   0.0000000000E+00   0.0000000000E+00  -2.0315853372E+02   2.0315853372E+02   0.0000000000E+00     0.000  -1.
   25    2    1    2    0    0   0.0000000000E+00   0.0000000000E+00  -1.8393093876E+02   2.2238612869E+02   1.2500000000E+02  2.894E-08  -1.
3000002    2    3    0    0    0  -5.6428350212E+01   9.0410441793E+00  -1.3332118937E+02   1.4539751966E+02   1.0000000000E+01  1.086E-09   1.
3000002    2    3    0    0    0   5.6428350212E+01  -9.0410441793E+00  -5.0609749391E+01   7.6988609034E+01   1.0000000000E+01  3.067E-10   1.
3000001    1    4    0    0    0  -3.7911784897E+01   8.7237231994E+00  -9.9459121041E+01   1.0680132742E+02   1.0000000000E+00     0.000  -1.
3000022   2   4   0   0   0   -1.8516565315E+01   3.1732097983E-01   -3.3862068328E+01   3.8596192236E+01   2.5000000000E-01   6.639312E+00   0.
3000001    1    5    0    0    0   1.1962889387E+01  -5.9090976821E+00  -1.3186654148E+01   1.8786058807E+01   1.0000000000E+00     0.000  -1.
3000022   2   5   0   0   0   4.4465460825E+01   -3.1319464972E+00   -3.7423095243E+01   5.8202550226E+01   2.5000000000E-01   3.181875E+00   0.
13    1    7    0    0    0  -5.3185417776E+00   1.3222325929E-01  -9.7480852363E+00   1.1105879542E+01   1.0500000000E-01     0.000  -1.
-13    1    7    0    0    0  -1.3198023537E+01   1.8509772054E-01  -2.4113983092E+01   2.7490312694E+01   1.0500000000E-01     0.000   1.
13    1    9    0    0    0   2.4719025789E+01  -1.7194153044E+00  -2.0884649528E+01   3.2406268466E+01   1.0500000000E-01     0.000  -1.
-13    1    9    0    0    0   1.9746435036E+01  -1.4125311928E+00  -1.6538445715E+01   2.5796281761E+01   1.0500000000E-01     0.000   1.
</event>
<event>
 13   1  9.2978750E-05  1.2500000E+02  7.5467720E-03  1.2380620E-01
   21   -1    0    0  502  501   0.0000000000E+00   0.0000000000E+00   1.0259842574E+02   1.0259842574E+02   0.0000000000E+00     0.000   1.
   21   -1    0    0  501  502   0.0000000000E+00   0.0000000000E+00  -3.8073196268E+01   3.8073196268E+01   0.0000000000E+00     0.000   1.
   25    2    1    2    0    0   0.0000000000E+00   0.0000000000E+00   6.4525229471E+01   1.4067162201E+02   1.2500000000E+02  4.628E-08  -1.
3000002    2    3    0    0    0   3.4603205877E+01   3.7878526184E+01   7.0823440481E+01   8.8023430542E+01   1.0000000000E+01  1.153E-10   1.
3000002    2    3    0    0    0  -3.4603205877E+01  -3.7878526184E+01  -6.2982110101E+00   5.2648191468E+01   1.0000000000E+01  1.100E-10   1.
3000001    1    4    0    0    0   1.5489021905E+01   1.1150239269E+01   3.0680501419E+01   3.6145965234E+01   1.0000000000E+00     0.000  -1.
3000022   2   4   0   0   0   1.9114183972E+01   2.6728286915E+01   4.0142939062E+01   5.1877465308E+01   2.5000000000E-01   1.256692E+00   0.
3000001    1    5    0    0    0  -3.4590806399E+01  -3.5831695226E+01  -7.3164157707E+00   5.0348428077E+01   1.0000000000E+00     0.000   1.
3000022   2   5   0   0   0   -1.2399478592E-02   -2.0468309583E+00   1.0182047606E+00   2.2997633907E+00   2.5000000000E-01   5.906940E+00   0.
13    1    7    0    0    0   1.0948302505E+01   1.5362002836E+01   2.3136243938E+01   2.9852190329E+01   1.0500000000E-01     0.000   1.
-13    1    7    0    0    0   8.1658814671E+00   1.1366284079E+01   1.7006695123E+01   2.2025274979E+01   1.0500000000E-01     0.000  -1.
13    1    9    0    0    0  -5.3541866192E-02  -1.0795017299E+00   5.9072930429E-01   1.2361944941E+00   1.0500000000E-01     0.000  -1.
-13    1    9    0    0    0   4.1142387600E-02  -9.6732922840E-01   4.2747545629E-01   1.0635688966E+00   1.0500000000E-01     0.000   1.
</event>
<event>
 13   1  9.2978750E-05  1.2500000E+02  7.5467720E-03  1.2380620E-01
   21   -1    0    0  502  501   0.0000000000E+00   0.0000000000E+00   2.5263276451E+01   2.5263276451E+01   0.0000000000E+00     0.000   1.
   21   -1    0    0  501  502   0.0000000000E+00   0.0000000000E+00  -1.5462167022E+02   1.5462167022E+02   0.0000000000E+00     0.000   1.
   25    2    1    2    0    0   0.0000000000E+00   0.0000000000E+00  -1.2935839376E+02   1.7988494667E+02   1.2500000000E+02  9.383E-08  -1.
3000002    2    3    0    0    0  -2.3419573812E+01   5.6028315320E+01  -8.0351390901E+01   1.0121262063E+02   1.0000000000E+01  4.392E-11  -1.
3000002    2    3    0    0    0   2.3419573812E+01  -5.6028315320E+01  -4.9007002859E+01   7.8672326039E+01   1.0000000000E+01  3.093E-10  -1.
3000001    1    4    0    0    0  -2.2965434610E+01   5.6365939880E+01  -7.9900448349E+01   1.0044706074E+02   1.0000000000E+00     0.000  -1.
3000022   2   4   0   0   0   -4.5413920236E-01   -3.3762455902E-01   -4.5094255186E-01   7.6555988861E-01   2.5000000000E-01   7.473102E+00   0.
3000001    1    5    0    0    0   5.6228422214E+00  -8.5870962725E+00  -4.5812118742E+00   1.1284594777E+01   1.0000000000E+00     0.000   1.
3000022   2   5   0   0   0   1.7796731591E+01   -4.7441219048E+01   -4.4425790985E+01   6.7387731263E+01   2.5000000000E-01   1.288580E+00   0.
13    1    7    0    0    0  -2.6270095588E-01  -2.1481316567E-01  -3.3953806839E-01   4.9139351669E-01   1.0500000000E-01     0.000  -1.
-13    1    7    0    0    0  -1.9143824648E-01  -1.2281139335E-01  -1.1140448347E-01   2.7416637192E-01   1.0500000000E-01     0.000   1.
13    1    9    0    0    0   7.1605013365E+00  -1.8914770727E+01  -1.7710985299E+01   2.6883663372E+01   1.0500000000E-01     0.000   1.
-13    1    9    0    0    0   1.0636230255E+01  -2.8526448321E+01  -2.6714805686E+01   4.0504067891E+01   1.0500000000E-01     0.000  -1.
</event>
<event>
 13   1  9.2978750E-05  1.2500000E+02  7.5467720E-03  1.2380620E-01
   21   -1    0    0  502  501   0.0000000000E+00   0.0000000000E+00   9.0544872715E+00   9.0544872715E+00   0.0000000000E+00     0.000   1.
   21   -1    0    0  501  502   0.0000000000E+00   0.0000000000E+00  -4.3141592482E+02   4.3141592482E+02   0.0000000000E+00     0.000   1.
   25    2    1    2    0    0   0.0000000000E+00   0.0000000000E+00  -4.2236143755E+02   4.4047041209E+02   1.2500000000E+02  3.450E-08  -1.
3000002    2    3    0    0    0   3.6878591044E+01   4.9020361553E+01  -1.8801383749E+02   1.9802078026E+02   1.0000000000E+01  5.838E-10  -1.
3000002    2    3    0    0    0  -3.6878591044E+01  -4.9020361553E+01  -2.3434760006E+02   2.4244963183E+02   1.0000000000E+01  5.896E-10  -1.
3000001    1    4    0    0    0   6.3035644290E+00   3.3930781591E+00  -2.1760349132E+01   2.2929472263E+01   1.0000000000E+00     0.000   1.
3000022   2   4   0   0   0   3.0575026615E+01   4.5627283394E+01   -1.6625348836E+02   1.7509130799E+02   2.5000000000E-01   3.958963E-01   0.
3000001    1    5    0    0    0  -2.2814500768E+01  -2.8312550093E+01  -1.1989509358E+02   1.2529140195E+02   1.0000000000E+00     0.000   1.
3000022   2   5   0   0   0   -1.4064090276E+01   -2.0707811459E+01   -1.1445250648E+02   1.1715822989E+02   2.5000000000E-01   4.273720E+00   0.
13    1    7    0    0    0   1.4964549349E+01   2.2378762321E+01  -8.1688292233E+01   8.6010085765E+01   1.0500000000E-01     0.000  -1.
-13    1    7    0    0    0   1.5610477266E+01   2.3248521072E+01  -8.4565196127E+01   8.9081222228E+01   1.0500000000E-01     0.000   1.
13    1    9    0    0    0  -4.1818994607E+00  -6.1068732364E+00  -3.3682118506E+01   3.4485914747E+01   1.0500000000E-01     0.000   1.
-13    1    9    0    0    0  -9.8821908153E+00  -1.4600938223E+01  -8.0770387972E+01   8.2672315139E+01   1.0500000000E-01     0.000  -1.
</event>
<event>
 13   1  9.2978750E-05  1.2500000E+02  7.5467720E-03  1.2380620E-01
   21   -1    0    0  502  501   0.0000000000E+00   0.0000000000E+00   5.2212621717E+01   5.2212621717E+01   0.0000000000E+00     0.000  -1.
   21   -1    0    0  501  502   0.0000000000E+00   0.0000000000E+00  -7.4814285733E+01   7.4814285733E+01   0.0000000000E+00     0.000  -1.
   25    2    1    2    0    0   0.0000000000E+00   0.0000000000E+00  -2.2601664015E+01   1.2702690745E+02   1.2500000000E+02  4.373E-08  -1.
3000002    2    3    0    0    0   6.0448691278E+01  -1.2110440949E+01  -1.3693353840E+01   6.3939150734E+01   1.0000000000E+01  2.591E-10  -1.
3000002    2    3    0    0    0  -6.0448691278E+01   1.2110440949E+01  -8.9083101753E+00   6.3087756716E+01   1.0000000000E+01  7.545E-10  -1.
3000001    1    4    0    0    0   1.4069068616E+01   3.6194031398E-01  -4.4015870170E-01   1.4116069998E+01   1.0000000000E+00     0.000   1.
3000022   2   4   0   0   0   4.6379622663E+01   -1.2472381263E+01   -1.3253195138E+01   4.9823080737E+01   2.5000000000E-01   3.022493E-02   0.
3000001    1    5    0    0    0  -3.6774234451E+01   6.9153871921E+00  -5.1195183495E-01   3.7435664735E+01   1.0000000000E+00     0.000  -1.
3000022   2   5   0   0   0   -2.3674456828E+01   5.1950537566E+00   -8.3963583403E+00   2.5652091981E+01   2.5000000000E-01   4.669258E+00   0.
13    1    7    0    0    0   1.6009861334E+01  -4.2632610555E+00  -4.5325007909E+00   1.7176892710E+01   1.0500000000E-01     0.000  -1.
-13    1    7    0    0    0   3.0369761329E+01  -8.2091202073E+00  -8.7206943472E+00   3.2646188026E+01   1.0500000000E-01     0.000   1.
13    1    9    0    0    0  -1.3716914547E+01   2.9537603926E+00  -4.8971401048E+00   1.4861744560E+01   1.0500000000E-01     0.000   1.
-13    1    9    0    0    0  -9.9575422803E+00   2.2412933640E+00  -3.4992182355E+00   1.0790347421E+01   1.0500000000E-01     0.000  -1.
</event>
<event>
 13   1  9.2978750E-05  1.2500000E+02  7.5467720E-03  1.2380620E-01
   21   -1    0    0  502  501   0.0000000000E+00   0.0000000000E+00   6.6472625239E+01   6.6472625239E+01   0.0000000000E+00     0.000  -1.
   21   -1    0    0  501  502   0.0000000000E+00   0.0000000000E+00  -5.8764792062E+01   5.8764792062E+01   0.0000000000E+00     0.000  -1.
   25    2    1    2    0    0   0.0000000000E+00   0.0000000000E+00   7.7078331773E+00   1.2523741730E+02   1.2500000000E+02  2.128E-08  -1.
3000002    2    3    0    0    0  -5.1771140811E+01   1.9450941486E-01  -2.9765160875E+01   6.0549596669E+01   1.0000000000E+01  1.336E-09   1.
3000002    2    3    0    0    0   5.1771140811E+01  -1.9450941486E-01   3.7472994052E+01   6.4687820631E+01   1.0000000000E+01  5.464E-10   1.
3000001    1    4    0    0    0  -3.1743044678E+00  -1.1300693228E+00   5.8519876986E-02   3.5152084013E+00   1.0000000000E+00     0.000   1.
3000022   2   4   0   0   0   -4.8596836344E+01   1.3245787377E+00   -2.9823680752E+01   5.7034388267E+01   2.5000000000E-01   7.824638E+00   0.
3000001    1    5    0    0    0   6.6627754899E+00  -1.9392491633E+00   2.0452065258E+00   7.3031591985E+00   1.0000000000E+00     0.000   1.
3000022   2   5   0   0   0   4.5108365322E+01   1.7447397484E+00   3.5427787526E+01   5.7384661433E+01   2.5000000000E-01   1.621897E+00   0.
13    1    7    0    0    0  -1.5810785927E+01   4.0476421324E-01  -9.7552888398E+00   1.8582827316E+01   1.0500000000E-01     0.000  -1.
-13    1    7    0    0    0  -3.2786050417E+01   9.1981452443E-01  -2.0068391912E+01   3.8451560951E+01   1.0500000000E-01     0.000   1.
13    1    9    0    0    0   1.3125353164E+01   4.9808961154E-01   1.0362087047E+01   1.6730417267E+01   1.0500000000E-01     0.000  -1.
-13    1    9    0    0    0   3.1983012157E+01   1.2466501369E+00   2.5065700479E+01   4.0654244166E+01   1.0500000000E-01     0.000   1.
</event>
<event>
 13   1  9.2978750E-05  1.2500000E+02  7.5467720E-03  1.2380620E-01
   21   -1    0    0  502  501   0.0000000000E+00   0.0000000000E+00   5.4516183688E+00   5.4516183688E+00   0.0000000000E+00     0.000   1.
   21   -1    0    0  501  502   0.0000000000E+00   0.0000000000E+00  -7.1653034672E+02   7.1653034672E+02   0.0000000000E+00     0.000   1.
   25    2    1    2    0    0   0.0000000000E+00   0.0000000000E+00  -7.1107872835E+02   7.2198196509E+02   1.2500000000E+02  1.928E-08  -1.
3000002    2    3    0    0    0  -3.8865223062E+01   4.5416664490E+00  -8.0041477997E+01   8.9653613970E+01   1.0000000000E+01  4.755E-11   1.
3000002    2    3    0    0    0   3.8865223062E+01  -4.5416664490E+00  -6.3103725035E+02   6.3232835112E+02   1.0000000000E+01  2.841E-11   1.
3000001    1    4    0    0    0  -1.2092239092E+01  -7.8365960457E-01  -1.6497414869E+01   2.0493927540E+01   1.0000000000E+00     0.000   1.
3000022   2   4   0   0   0   -2.6772983970E+01   5.3253260535E+00   -6.3544063128E+01   6.9159686430E+01   2.5000000000E-01   5.682505E+00   0.
3000001    1    5    0    0    0   1.9791803319E+01  -6.9133267566E+00  -2.9971608544E+02   3.0045006480E+02   1.0000000000E+00     0.000  -1.
3000022   2   5   0   0   0   1.9073419743E+01   2.3716603076E+00   -3.3132116491E+02   3.3187828632E+02   2.5000000000E-01   2.887798E+00   0.
13    1    7    0    0    0  -9.0707273567E+00   1.8328958852E+00  -2.1424151262E+01   2.3337585231E+01   1.0500000000E-01     0.000  -1.
-13    1    7    0    0    0  -1.7702256613E+01   3.4924301684E+00  -4.2119911866E+01   4.5822101199E+01   1.0500000000E-01     0.000   1.
13    1    9    0    0    0   1.3584688924E+01   1.6512150222E+00  -2.3621821919E+02   2.3661430300E+02   1.0500000000E-01     0.000   1.
-13    1    9    0    0    0   5.4887308195E+00   7.2044528540E-01  -9.5102945721E+01   9.5263983316E+01   1.0500000000E-01     0.000  -1.
</event>
<event>
 13   1  9.2978750E-05  1.2500000E+02  7.5467720E-03  1.2380620E-01
   21   -1    0    0  502  501   0.0000000000E+00   0.0000000000E+00   3.1654692692E+02   3.1654692692E+02   0.0000000000E+00     0.000  -1.
   21   -1    0    0  501  502   0.0000000000E+00   0.0000000000E+00  -1.2340192457E+01   1.2340192457E+01   0.0000000000E+00     0.000  -1.
   25    2    1    2    0    0   0.0000000000E+00   0.0000000000E+00   3.0420673446E+02   3.2888711938E+02   1.2500000000E+02  2.934E-08  -1.
3000002    2    3    0    0    0  -4.0723400209E+00   2.9040142591E+01   9.2869939459E+00   3.2344429064E+01   1.0000000000E+01  7.825E-10   1.
3000002    2    3    0    0    0   4.0723400209E+00  -2.9040142591E+01   2.9491974051E+02   2.9654269032E+02   1.0000000000E+01  2.889E-10   1.
3000001    1    4    0    0    0  -3.4763589096E+00   2.8535295805E+01   6.5674082948E+00   2.9503881604E+01   1.0000000000E+00     0.000   1.
3000022   2   4   0   0   0   -5.9598111124E-01   5.0484678529E-01   2.7195856511E+00   2.8405474605E+00   2.5000000000E-01   1.006688E+00   0.
3000001    1    5    0    0    0  -2.0767767709E+00  -1.7141586142E+00   2.1259308053E+01   2.1452494503E+01   1.0000000000E+00     0.000   1.
3000022   2   5   0   0   0   6.1491167918E+00   -2.7325983976E+01   2.7366043246E+02   2.7509019581E+02   2.5000000000E-01   1.764441E+00   0.
13    1    7    0    0    0  -3.3730138900E-01   2.1900309355E-01   1.2313405674E+00   1.2995996210E+00   1.0500000000E-01     0.000   1.
-13    1    7    0    0    0  -2.5867972223E-01   2.8584369174E-01   1.4882450838E+00   1.5409478395E+00   1.0500000000E-01     0.000  -1.
13    1    9    0    0    0   4.3649578592E+00  -1.9581967388E+01   1.9607061311E+02   1.9709440037E+02   1.0500000000E-01     0.000   1.
-13    1    9    0    0    0   1.7841589325E+00  -7.7440165885E+00   7.7589819348E+01   7.7995795448E+01   1.0500000000E-01     0.000  -1.
</event>
<event>
 13   1  9.2978750E-05  1.2500000E+02  7.5467720E-03  1.2380620E-01
   21   -1    0    0  502  501   0.0000000000E+00   0.0000000000E+00   1.8791914381E+01   1.8791914381E+01   0.0000000000E+00     0.000   1.
   21   -1    0    0  501  502   0.0000000000E+00   0.0000000000E+00  -2.0786865674E+02   2.0786865674E+02   0.0000000000E+00     0.000   1.
   25    2    1    2    0    0   0.0000000000E+00   0.0000000000E+00  -1.8907674236E+02   2.2666057112E+02   1.2500000000E+02  5.687E-09  -1.
3000002    2    3    0    0    0   5.9829888611E+00  -6.0504053610E+01  -7.5545278581E+01   9.7486541506E+01   1.0000000000E+01  2.855E-10  -1.
3000002    2    3    0    0    0  -5.9829888611E+00   6.0504053610E+01  -1.1353146378E+02   1.2917402961E+02   1.0000000000E+01  5.968E-10  -1.
3000001    1    4    0    0    0   4.3175509839E+00  -5.9449380329E+01  -7.2715964502E+01   9.4029152721E+01   1.0000000000E+00     0.000  -1.
3000022   2   4   0   0   0   1.6654378773E+00   -1.0546732808E+00   -2.8293140793E+00   3.4573887851E+00   2.5000000000E-01   5.012656E-01   0.
3000001    1    5    0    0    0  -5.5614036235E+00   4.5624624385E+01  -7.6348427766E+01   8.9121366590E+01   1.0000000000E+00     0.000  -1.
3000022   2   5   0   0   0   -4.2158523763E-01   1.4879429224E+01   -3.7183036013E+01   4.0052663023E+01   2.5000000000E-01   3.179399E+00   0.
13    1    7    0    0    0   1.1846985322E+00  -7.8112400565E-01  -2.0801001285E+00   2.5202196073E+00   1.0500000000E-01     0.000  -1.
-13    1    7    0    0    0   4.8073934503E-01  -2.7354927515E-01  -7.4921395079E-01   9.3716917781E-01   1.0500000000E-01     0.000   1.
13    1    9    0    0    0  -1.7930840134E-01   5.5036604118E+00  -1.3903707591E+01   1.4954816589E+01   1.0500000000E-01     0.000   1.
-13    1    9    0    0    0  -2.4227683629E-01   9.3757688125E+00  -2.3279328422E+01   2.5097846435E+01   1.0500000000E-01     0.000  -1.
</event>
<event>
 13   1  9.2978750E-05  1.2500000E+02  7.5467720E-03  1.2380620E-01
   21   -1    0    0  502  501   0.0000000000E+00   0.0000000000E+00   1.3395737225E+02   1.3395737225E+02   0.0000000000E+00     0.000   1.
   21   -1    0    0  501  502   0.0000000000E+00   0.0000000000E+00  -2.9160395835E+01   2.9160395835E+01   0.0000000000E+00     0.000   1.
   25    2    1    2    0    0   0.0000000000E+00   0.0000000000E+00   1.0479697642E+02   1.6311776809E+02   1.2500000000E+02  2.695E-08  -1.
3000002    2    3    0    0    0  -1.9538237022E+01  -4.9668501269E+01   9.2778958250E+01   1.0750180379E+02   1.0000000000E+01  1.043E-09   1.
3000002    2    3    0    0    0   1.9538237022E+01   4.9668501269E+01   1.2018018170E+01   5.5615964300E+01   1.0000000000E+01  1.725E-09   1.
3000001    1    4    0    0    0  -8.7722303474E+00  -2.5914340245E+01   5.6914704810E+01   6.3156857737E+01   1.0000000000E+00     0.000  -1.
3000022   2   4   0   0   0   -1.0766006675E+01   -2.3754161024E+01   3.5864253440E+01   4.4344946054E+01   2.5000000000E-01   1.353129E+00   0.
3000001    1    5    0    0    0   2.7473296073E+00   5.8051531670E+00  -1.6379516131E+00   6.7030223594E+00   1.0000000000E+00     0.000   1.
3000022   2   5   0   0   0   1.6790907415E+01   4.3863348102E+01   1.3655969783E+01   4.8912941940E+01   2.5000000000E-01   1.463724E+01   0.
13    1    7    0    0    0  -6.8808909217E+00  -1.5319737584E+01   2.3079405041E+01   2.8543142461E+01   1.0500000000E-01     0.000   1.
-13    1    7    0    0    0  -3.8851157532E+00  -8.4344234402E+00   1.2784848399E+01   1.5801803592E+01   1.0500000000E-01     0.000  -1.
13    1    9    0    0    0   4.6682071754E+00   1.2306084754E+01   3.8258376305E+00   1.3706930319E+01   1.0500000000E-01     0.000   1.
-13    1    9    0    0    0   1.2122700240E+01   3.1557263348E+01   9.8301321526E+00   3.5206011621E+01   1.0500000000E-01     0.000  -1.
</event>
<event>
 13   1  9.2978750E-05  1.2500000E+02  7.5467720E-03  1.2380620E-01
   21   -1    0    0  502  501   0.0000000000E+00   0.0000000000E+00   2.1567293410E+01   2.1567293410E+01   0.0000000000E+00     0.000   1.
   21   -1    0    0  501  502   0.0000000000E+00   0.0000000000E+00  -1.8111915694E+02   1.8111915694E+02   0.0000000000E+00     0.000   1.
   25    2    1    2    0    0   0.0000000000E+00   0.0000000000E+00  -1.5955186353E+02   2.0268645035E+02   1.2500000000E+02  2.661E-09  -1.
3000002    2    3    0    0    0  -2.1535900018E+01  -3.4755313553E+01  -4.8615598575E+00   4.2371707235E+01   1.0000000000E+01  1.412E-09   1.
3000002    2    3    0    0    0   2.1535900018E+01   3.4755313553E+01  -1.5469030367E+02   1.6031474312E+02   1.0000000000E+01  1.494E-09   1.
3000001    1    4    0    0    0  -2.0955314888E+01  -3.5335968963E+01  -4.2414010648E+00   4.1312775356E+01   1.0000000000E+00     0.000   1.
3000022   2   4   0   0   0   -5.8058512912E-01   5.8065540933E-01   -6.2015879274E-01   1.0589318792E+00   2.5000000000E-01   2.236205E+00   0.
3000001    1    5    0    0    0   2.2159524478E+01   3.1476551880E+01  -1.3691311625E+02   1.4222524124E+02   1.0000000000E+00     0.000  -1.
3000022   2   5   0   0   0   -6.2362446048E-01   3.2787616733E+00   -1.7777187423E+01   1.8089501879E+01   2.5000000000E-01   1.205410E+00   0.
13    1    7    0    0    0  -3.7425077086E-01   3.7550900439E-01  -3.2095893505E-01   6.2857799027E-01   1.0500000000E-01     0.000  -1.
-13    1    7    0    0    0  -2.0633435825E-01   2.0514640494E-01  -2.9919985769E-01   4.3035388891E-01   1.0500000000E-01     0.000   1.
13    1    9    0    0    0  -4.6868132296E-01   2.1834585608E+00  -1.1827811818E+01   1.2037246815E+01   1.0500000000E-01     0.000  -1.
-13    1    9    0    0    0  -1.5494313752E-01   1.0953031125E+00  -5.9493756041E+00   6.0522550643E+00   1.0500000000E-01     0.000   1.
</event>
<event>
 13   1  9.2978750E-05  1.2500000E+02  7.5467720E-03  1.2380620E-01
   21   -1    0    0  502  501   0.0000000000E+00   0.0000000000E+00   1.8848288800E+02   1.8848288800E+02   0.0000000000E+00     0.000  -1.
   21   -1    0    0  501  502   0.0000000000E+00   0.0000000000E+00  -2.0724693056E+01   2.0724693056E+01   0.0000000000E+00     0.000  -1.
   25    2    1    2    0    0   0.0000000000E+00   0.0000000000E+00   1.6775819494E+02   2.0920758105E+02   1.2500000000E+02  9.707E-08  -1.
3000002    2    3    0    0    0  -4.5099778314E+01  -2.1731813356E+01   2.3534676534E+01   5.6215146671E+01   1.0000000000E+01  9.333E-10   1.
3000002    2    3    0    0    0   4.5099778314E+01   2.1731813356E+01   1.4422351841E+02   1.5299243438E+02   1.0000000000E+01  1.289E-09   1.
3000001    1    4    0    0    0  -2.4498222483E+01  -1.2924992750E+01   7.6620057021E+00   2.8756297985E+01   1.0000000000E+00     0.000   1.
3000022   2   4   0   0   0   -2.0601555831E+01   -8.8068206062E+00   1.5872670832E+01   2.7458848686E+01   2.5000000000E-01   2.269942E+01   0.
3000001    1    5    0    0    0   1.0893178507E+01   7.0554593098E+00   5.0425653368E+01   5.2078665129E+01   1.0000000000E+00     0.000   1.
3000022   2   5   0   0   0   3.4206599807E+01   1.4676354046E+01   9.3797865038E+01   1.0091376925E+02   2.5000000000E-01   7.924910E-01   0.
13    1    7    0    0    0  -1.5385331567E+01  -6.5726523873E+00   1.1886315614E+01   2.0523248054E+01   1.0500000000E-01     0.000   1.
-13    1    7    0    0    0  -5.2162242643E+00  -2.2341682190E+00   3.9863552182E+00   6.9356006324E+00   1.0500000000E-01     0.000  -1.
13    1    9    0    0    0   1.6755834468E+01   7.1237136864E+00   4.5966198557E+01   4.9440951853E+01   1.0500000000E-01     0.000   1.
-13    1    9    0    0    0   1.7450765339E+01   7.5526403600E+00   4.7831666481E+01   5.1472817396E+01   1.0500000000E-01     0.000  -1.
</event>
<event>
 13   1  9.2978750E-05  1.2500000E+02  7.5467720E-03  1.2380620E-01
   21   -1    0    0  502  501   0.0000000000E+00   0.0000000000E+00   6.3504562431E+01   6.3504562431E+01   0.0000000000E+00     0.000   1.
   21   -1    0    0  501  502   0.0000000000E+00   0.0000000000E+00  -6.1511328485E+01   6.1511328485E+01   0.0000000000E+00     0.000   1.
   25    2    1    2    0    0   0.0000000000E+00   0.0000000000E+00   1.9932339456E+00   1.2501589092E+02   1.2500000000E+02  1.038E-07  -1.
3000002    2    3    0    0    0  -6.0441529862E+00   5.6386861499E+01   2.5294562279E+01   6.2895348126E+01   1.0000000000E+01  1.929E-10  -1.
3000002    2    3    0    0    0   6.0441529862E+00  -5.6386861499E+01  -2.3301328333E+01   6.2120542794E+01   1.0000000000E+01  1.021E-10  -1.
3000001    1    4    0    0    0  -2.2015689296E+00   1.0975398444E+01   9.3266064833E+00   1.4604515235E+01   1.0000000000E+00     0.000   1.
3000022   2   4   0   0   0   -3.8425840567E+00   4.5411463054E+01   1.5967955795E+01   4.8290832890E+01   2.5000000000E-01   1.525064E+00   0.
3000001    1    5    0    0    0   5.7712162876E+00  -2.9193532069E+01  -7.6491660505E+00   3.0742137098E+01   1.0000000000E+00     0.000  -1.
3000022   2   5   0   0   0   2.7293669864E-01   -2.7193329429E+01   -1.5652162283E+01   3.1378405696E+01   2.5000000000E-01   2.874099E+00   0.
13    1    7    0    0    0  -2.2747893063E+00   2.6503882526E+01   9.3797853220E+00   2.8206769631E+01   1.0500000000E-01     0.000  -1.
-13    1    7    0    0    0  -1.5677947503E+00   1.8907580528E+01   6.5881704732E+00   2.0084063259E+01   1.0500000000E-01     0.000   1.
13    1    9    0    0    0   1.6491833397E-01  -1.4772526423E+01  -8.4281046630E+00   1.7008783266E+01   1.0500000000E-01     0.000   1.
-13    1    9    0    0    0   1.0801836467E-01  -1.2420803007E+01  -7.2240576195E+00   1.4369622430E+01   1.0500000000E-01     0.000  -1.
</event>
<event>
 13   1  9.2978750E-05  1.2500000E+02  7.5467720E-03  1.2380620E-01
   21   -1    0    0  502  501   0.0000000000E+00   0.0000000000E+00   5.3493749001E+01   5.3493749001E+01   0.0000000000E+00     0.000  -1.
   21   -1    0    0  501  502   0.0000000000E+00   0.0000000000E+00  -7.3022550726E+01   7.3022550726E+01   0.0000000000E+00     0.000  -1.
   25    2    1    2    0    0   0.0000000000E+00   0.0000000000E+00  -1.9528801725E+01   1.2651629973E+02   1.2500000000E+02  7.079E-08  -1.
3000002    2    3    0    0    0  -3.5313694198E+01   3.4741212268E+01  -4.6983301932E+01   6.9003184623E+01   1.0000000000E+01  1.306E-10  -1.
3000002    2    3    0    0    0   3.5313694198E+01  -3.4741212268E+01   2.7454500207E+01   5.7513115107E+01   1.0000000000E+01  5.063E-10  -1.
3000001    1    4    0    0    0  -2.3082982184E+00   6.4984839068E+00  -4.8798428684E+00   8.5071381893E+00   1.0000000000E+00     0.000  -1.
3000022   2   4   0   0   0   -3.3005395979E+01   2.8242728361E+01   -4.2103459063E+01   6.0496046434E+01   2.5000000000E-01   6.063457E+00   0.
3000001    1    5    0    0    0   1.8712714115E+01  -1.1956328180E+01   1.4045628876E+01   2.6294469830E+01   1.0000000000E+00     0.000  -1.
3000022   2   5   0   0   0   1.6600980083E+01   -2.2784884088E+01   1.3408871330E+01   3.1218645277E+01   2.5000000000E-01   3.963425E+00   0.
13    1    7    0    0    0  -1.4711392019E+01   1.2501176284E+01  -1.8712630913E+01   2.6886391433E+01   1.0500000000E-01     0.000   1.
-13    1    7    0    0    0  -1.8294003961E+01   1.5741552077E+01  -2.3390828150E+01   3.3609655001E+01   1.0500000000E-01     0.000  -1.
13    1    9    0    0    0   1.1492735373E+01  -1.5847630540E+01   9.2903767475E+00   2.1669159771E+01   1.0500000000E-01     0.000  -1.
-13    1    9    0    0    0   5.1082447101E+00  -6.9372535479E+00   4.1184945828E+00   9.5494855063E+00   1.0500000000E-01     0.000   1.
</event>
<event>
 13   1  9.2978750E-05  1.2500000E+02  7.5467720E-03  1.2380620E-01
   21   -1    0    0  502  501   0.0000000000E+00   0.0000000000E+00   7.4849749699E+02   7.4849749699E+02   0.0000000000E+00     0.000   1.
   21   -1    0    0  501  502   0.0000000000E+00   0.0000000000E+00  -5.2187883269E+00   5.2187883269E+00   0.0000000000E+00     0.000   1.
   25    2    1    2    0    0   0.0000000000E+00   0.0000000000E+00   7.4327870867E+02   7.5371628532E+02   1.2500000000E+02  2.364E-08  -1.
3000002    2    3    0    0    0   5.4500679697E+01  -2.6110810101E+01   4.4650313813E+02   4.5068520150E+02   1.0000000000E+01  9.215E-11   1.
3000002    2    3    0    0    0  -5.4500679697E+01   2.6110810101E+01   2.9677557054E+02   3.0303108382E+02   1.0000000000E+01  1.142E-10   1.
3000001    1    4    0    0    0   3.1550824593E+01  -1.8801517412E+01   2.4310517627E+02   2.4586597633E+02   1.0000000000E+00     0.000  -1.
3000022   2   4   0   0   0   2.2949855104E+01   -7.3092926891E+00   2.0339796186E+02   2.0481922516E+02   2.5000000000E-01   2.258388E+00   0.
3000001    1    5    0    0    0  -3.4662118568E+01   1.1953508949E+01   1.6605473824E+02   1.7005741657E+02   1.0000000000E+00     0.000   1.
3000022   2   5   0   0   0   -1.9838561129E+01   1.4157301153E+01   1.3072083230E+02   1.3297366725E+02   2.5000000000E-01   2.393394E+01   0.
13    1    7    0    0    0   9.9342092551E+00  -3.1739490366E+00   8.7518203637E+01   8.8137446406E+01   1.0500000000E-01     0.000  -1.
-13    1    7    0    0    0   1.3015645849E+01  -4.1353436524E+00   1.1587975822E+02   1.1668177876E+02   1.0500000000E-01     0.000   1.
13    1    9    0    0    0  -7.2345048887E+00   5.0968988614E+00   4.7595438098E+01   4.8411291985E+01   1.0500000000E-01     0.000   1.
-13    1    9    0    0    0  -1.2604056240E+01   9.0604022912E+00   8.3125394207E+01   8.4562375265E+01   1.0500000000E-01     0.000  -1.
</event>
<event>
 13   1  9.2978750E-05  1.2500000E+02  7.5467720E-03  1.2380620E-01
   21   -1    0    0  502  501   0.0000000000E+00   0.0000000000E+00   8.4664628183E+01   8.4664628183E+01   0.0000000000E+00     0.000   1.
   21   -1    0    0  501  502   0.0000000000E+00   0.0000000000E+00  -4.6137921867E+01   4.6137921867E+01   0.0000000000E+00     0.000   1.
   25    2    1    2    0    0   0.0000000000E+00   0.0000000000E+00   3.8526706317E+01   1.3080255005E+02   1.2500000000E+02  5.413E-09  -1.
3000002    2    3    0    0    0   4.8536012574E+01   1.4365153399E+01  -1.7646489574E+01   5.4529815175E+01   1.0000000000E+01  4.450E-10   1.
3000002    2    3    0    0    0  -4.8536012574E+01  -1.4365153399E+01   5.6173195891E+01   7.6272734875E+01   1.0000000000E+01  1.632E-09   1.
3000001    1    4    0    0    0   5.4241141605E+00   1.3940363757E+00   1.0417261957E+00   5.7835581877E+00   1.0000000000E+00     0.000  -1.
3000022   2   4   0   0   0   4.3111898413E+01   1.2971117024E+01   -1.8688215770E+01   4.8746256987E+01   2.5000000000E-01   8.494095E-01   0.
3000001    1    5    0    0    0  -4.0978111714E+01  -1.1439458045E+01   4.1132578685E+01   5.9185774214E+01   1.0000000000E+00     0.000   1.
3000022   2   5   0   0   0   -7.5579008597E+00   -2.9256953540E+00   1.5040617206E+01   1.7086960661E+01   2.5000000000E-01   7.028360E+00   0.
13    1    7    0    0    0   3.0259825206E+01   9.1269281555E+00  -1.3076637155E+01   3.4204784802E+01   1.0500000000E-01     0.000  -1.
-13    1    7    0    0    0   1.2852073207E+01   3.8441888682E+00  -5.6115786145E+00   1.4541472185E+01   1.0500000000E-01     0.000   1.
13    1    9    0    0    0  -3.8965377822E+00  -1.4378667858E+00   7.6724104776E+00   8.7251002927E+00   1.0500000000E-01     0.000  -1.
-13    1    9    0    0    0  -3.6613630776E+00  -1.4878285681E+00   7.3682067280E+00   8.3618603684E+00   1.0500000000E-01     0.000   1.
</event>
<event>
 13   1  9.2978750E-05  1.2500000E+02  7.5467720E-03  1.2380620E-01
   21   -1    0    0  502  501   0.0000000000E+00   0.0000000000E+00   4.5654895779E+01   4.5654895779E+01   0.0000000000E+00     0.000   1.
   21   -1    0    0  501  502   0.0000000000E+00   0.0000000000E+00  -8.5560374924E+01   8.5560374924E+01   0.0000000000E+00     0.000   1.
   25    2    1    2    0    0   0.0000000000E+00   0.0000000000E+00  -3.9905479145E+01   1.3121527070E+02   1.2500000000E+02  7.237E-08  -1.
3000002    2    3    0    0    0   4.9588472368E+01  -3.5830459126E+01  -1.1593654471E+01   6.3065451850E+01   1.0000000000E+01  6.341E-10  -1.
3000002    2    3    0    0    0  -4.9588472368E+01   3.5830459126E+01  -2.8311824674E+01   6.8149818850E+01   1.0000000000E+01  2.298E-09  -1.
3000001    1    4    0    0    0   2.2449778087E+01  -2.1766893238E+01  -3.7627619849E+00   3.1511086226E+01   1.0000000000E+00     0.000  -1.
3000022   2   4   0   0   0   2.7138694281E+01   -1.4063565888E+01   -7.8308924864E+00   3.1554365623E+01   2.5000000000E-01   1.994038E+00   0.
3000001    1    5    0    0    0  -3.0513717042E+01   2.5136560995E+01  -1.3718328115E+01   4.1858405997E+01   1.0000000000E+00     0.000  -1.
3000022   2   5   0   0   0   -1.9074755326E+01   1.0693898131E+01   -1.4593496559E+01   2.6291412853E+01   2.5000000000E-01   6.099494E+00   0.
13    1    7    0    0    0   2.0534154941E+01  -1.0620291726E+01  -5.9097139377E+00   2.3861639913E+01   1.0500000000E-01     0.000   1.
-13    1    7    0    0    0   6.6045393396E+00  -3.4432741619E+00  -1.9211785486E+00   7.6927257106E+00   1.0500000000E-01     0.000  -1.
13    1    9    0    0    0  -9.9073257521E+00   5.5844498885E+00  -7.5146282253E+00   1.3631648707E+01   1.0500000000E-01     0.000   1.
-13    1    9    0    0    0  -9.1674295742E+00   5.1094482421E+00  -7.0788683337E+00   1.2659764146E+01   1.0500000000E-01     0.000  -1.
</event>
<event>
 13   1  9.2978750E-05  1.2500000E+02  7.5467720E-03  1.2380620E-01
   21   -1    0    0  502  501   0.0000000000E+00   0.0000000000E+00   6.5521862194E+02   6.5521862194E+02   0.0000000000E+00     0.000   1.
   21   -1    0    0  501  502   0.0000000000E+00   0.0000000000E+00  -5.9617505809E+00   5.9617505809E+00   0.0000000000E+00     0.000   1.
   25    2    1    2    0    0   0.0000000000E+00   0.0000000000E+00   6.4925687136E+02   6.6118037253E+02   1.2500000000E+02  1.597E-08  -1.
3000002    2    3    0    0    0   3.0267110300E+01   4.5901519009E+01   4.7265750103E+02   4.7594974598E+02   1.0000000000E+01  3.271E-10  -1.
3000002    2    3    0    0    0  -3.0267110300E+01  -4.5901519009E+01   1.7659937033E+02   1.8523062655E+02   1.0000000000E+01  1.023E-09  -1.
3000001    1    4    0    0    0   2.2792696736E+01   2.9630576006E+01   2.8582088378E+02   2.8825692648E+02   1.0000000000E+00     0.000  -1.
3000022   2   4   0   0   0   7.4744135638E+00   1.6270943002E+01   1.8683661725E+02   1.8769281950E+02   2.5000000000E-01   6.319160E+00   0.
3000001    1    5    0    0    0  -3.0699869396E+01  -4.2463300163E+01   1.6596717893E+02   1.7404516173E+02   1.0000000000E+00     0.000  -1.
3000022   2   5   0   0   0   4.3275909644E-01   -3.4382188454E+00   1.0632191399E+01   1.1185464819E+01   2.5000000000E-01   2.994715E+00   0.
13    1    7    0    0    0   4.3149873232E+00   9.5203799761E+00   1.0867918265E+02   1.0918073326E+02   1.0500000000E-01     0.000  -1.
-13    1    7    0    0    0   3.1594262406E+00   6.7505630259E+00   7.8157434608E+01   7.8512086234E+01   1.0500000000E-01     0.000   1.
13    1    9    0    0    0   1.8727082810E-01  -1.1309654065E+00   3.6165577111E+00   3.7953481779E+00   1.0500000000E-01     0.000   1.
-13    1    9    0    0    0   2.4548826834E-01  -2.3072534389E+00   7.0156336882E+00   7.3901166411E+00   1.0500000000E-01     0.000  -1.
</event>
<event>
 13   1  9.2978750E-05  1.2500000E+02  7.5467720E-03  1.2380620E-01
   21   -1    0    0  502  501   0.0000000000E+00   0.0000000000E+00   1.6968210832E+01   1.6968210832E+01   0.0000000000E+00     0.000   1.
   21   -1    0    0  501  502   0.0000000000E+00   0.0000000000E+00  -2.3020989300E+02   2.3020989300E+02   0.0000000000E+00     0.000   1.
   25    2    1    2    0    0   0.0000000000E+00   0.0000000000E+00  -2.1324168217E+02   2.4717810383E+02   1.2500000000E+02  8.157E-08  -1.
3000002    2    3    0    0    0   2.8729905244E+01   4.6708084523E+01  -1.6252279789E+02   1.7181592606E+02   1.0000000000E+01  9.499E-11  -1.
3000002    2    3    0    0    0  -2.8729905244E+01  -4.6708084523E+01  -5.0718884280E+01   7.5362177766E+01   1.0000000000E+01  1.588E-09  -1.
3000001    1    4    0    0    0   2.6165139435E+01   4.1156478651E+01  -1.3294714668E+02   1.4161360834E+02   1.0000000000E+00     0.000  -1.
3000022   2   4   0   0   0   2.5647658091E+00   5.5516058712E+00   -2.9575651209E+01   3.0202317723E+01   2.5000000000E-01   5.987038E+00   0.
3000001    1    5    0    0    0  -9.3489487662E+00  -2.0205206771E+01  -1.5106227955E+01   2.6923063472E+01   1.0000000000E+00     0.000  -1.
3000022   2   5   0   0   0   -1.9380956477E+01   -2.6502877752E+01   -3.5612656325E+01   4.8439114294E+01   2.5000000000E-01   1.742133E-01   0.
13    1    7    0    0    0   9.4994864782E-01   1.9216691896E+00  -1.0349402184E+01   1.0569596278E+01   1.0500000000E-01     0.000  -1.
-13    1    7    0    0    0   1.6148171613E+00   3.6299366815E+00  -1.9226249025E+01   1.9632721445E+01   1.0500000000E-01     0.000   1.
13    1    9    0    0    0  -5.6882451951E+00  -7.7049692724E+00  -1.0391153158E+01   1.4131870855E+01   1.0500000000E-01     0.000   1.
-13    1    9    0    0    0  -1.3692711282E+01  -1.8797908479E+01  -2.5221503166E+01   3.4307243440E+01   1.0500000000E-01     0.000  -1.
</event>
<event>
 13   1  9.2978750E-05  1.2500000E+02  7.5467720E-03  1.2380620E-01
   21   -1    0    0  502  501   0.0000000000E+00   0.0000000000E+00   3.3199311445E+02   3.3199311445E+02   0.0000000000E+00     0.000  -1.
   21   -1    0    0  501  502   0.0000000000E+00   0.0000000000E+00  -1.1766057276E+01   1.1766057276E+01   0.0000000000E+00     0.000  -1.
   25    2    1    2    0    0   0.0000000000E+00   0.0000000000E+00   3.2022705717E+02   3.4375917173E+02   1.2500000000E+02  3.592E-08  -1.
3000002    2    3    0    0    0   5.7355518164E+01   1.9422372241E+01   1.9257907295E+02   2.0212269379E+02   1.0000000000E+01  2.287E-10  -1.
3000002    2    3    0    0    0  -5.7355518164E+01  -1.9422372241E+01   1.2764798422E+02   1.4163647794E+02   1.0000000000E+01  5.273E-10  -1.
3000001    1    4    0    0    0   4.6403989839E+01   1.3905823918E+01   1.4054664113E+02   1.4866425443E+02   1.0000000000E+00     0.000  -1.
3000022   2   4   0   0   0   1.0951528325E+01   5.5165483229E+00   5.2032431821E+01   5.3458439364E+01   2.5000000000E-01   2.489197E+01   0.
3000001    1    5    0    0    0  -4.6046208667E+01  -1.2480975545E+01   9.2867640959E+01   1.0440989810E+02   1.0000000000E+00     0.000  -1.
3000022   2   5   0   0   0   -1.1309309497E+01   -6.9413966962E+00   3.4780343260E+01   3.7226579842E+01   2.5000000000E-01   3.980542E+00   0.
13    1    7    0    0    0   3.3229978026E+00   1.6872779749E+00   1.5620339145E+01   1.6059117079E+01   1.0500000000E-01     0.000   1.
-13    1    7    0    0    0   7.6285305221E+00   3.8292703480E+00   3.6412092676E+01   3.7399322285E+01   1.0500000000E-01     0.000  -1.
13    1    9    0    0    0  -4.2182413261E+00  -2.5583826655E+00   1.2781418041E+01   1.3700896098E+01   1.0500000000E-01     0.000   1.
-13    1    9    0    0    0  -7.0910681710E+00  -4.3830140307E+00   2.1998925220E+01   2.3525683744E+01   1.0500000000E-01     0.000  -1.
</event>
<event>
 13   1  9.2978750E-05  1.2500000E+02  7.5467720E-03  1.2380620E-01
   21   -1    0    0  502  501   0.0000000000E+00   0.0000000000E+00   5.8883602111E+02   5.8883602111E+02   0.0000000000E+00     0.000  -1.
   21   -1    0    0  501  502   0.0000000000E+00   0.0000000000E+00  -6.6338502740E+00   6.6338502740E+00   0.0000000000E+00     0.000  -1.
   25    2    1    2    0    0   0.0000000000E+00   0.0000000000E+00   5.8220217083E+02   5.9546987138E+02   1.2500000000E+02  1.105E-08  -1.
3000002    2    3    0    0    0   8.4757637692E+00   2.6694688432E+01   2.9232742454E+01   4.1701297263E+01   1.0000000000E+01  7.613E-10  -1.
3000002    2    3    0    0    0  -8.4757637692E+00  -2.6694688432E+01   5.5296942838E+02   5.5376857412E+02   1.0000000000E+01  5.652E-10  -1.
3000001    1    4    0    0    0   9.6846854334E+00   2.2357214774E+01   2.7777650736E+01   3.6962630653E+01   1.0000000000E+00     0.000  -1.
3000022   2   4   0   0   0   -1.2089216642E+00   4.3374736582E+00   1.4550917187E+00   4.7386666095E+00   2.5000000000E-01   8.555515E+00   0.
3000001    1    5    0    0    0  -5.5108709548E+00  -8.2929936518E+00   1.2803424459E+02   1.2842472982E+02   1.0000000000E+00     0.000   1.
3000022   2   5   0   0   0   -2.9648928144E+00   -1.8401694781E+01   4.2493518378E+02   4.2534384429E+02   2.5000000000E-01   4.391357E-02   0.
13    1    7    0    0    0  -8.0603508890E-01   2.8015426493E+00   9.9552342875E-01   3.0822760548E+00   1.0500000000E-01     0.000  -1.
-13    1    7    0    0    0  -4.0288657529E-01   1.5359310089E+00   4.5956828997E-01   1.6563905547E+00   1.0500000000E-01     0.000   1.
13    1    9    0    0    0  -1.0730128171E+00  -6.4178124755E+00   1.4929401323E+02   1.4943578248E+02   1.0500000000E-01     0.000  -1.
-13    1    9    0    0    0  -1.8918799973E+00  -1.1983882305E+01   2.7564117056E+02   2.7590806182E+02   1.0500000000E-01     0.000   1.
</event>
<event>
 13   1  9.2978750E-05  1.2500000E+02  7.5467720E-03  1.2380620E-01
   21   -1    0    0  502  501   0.0000000000E+00   0.0000000000E+00   3.0444819997E+01   3.0444819997E+01   0.0000000000E+00     0.000  -1.
   21   -1    0    0  501  502   0.0000000000E+00   0.0000000000E+00  -1.2830589901E+02   1.2830589901E+02   0.0000000000E+00     0.000  -1.
   25    2    1    2    0    0   0.0000000000E+00   0.0000000000E+00  -9.7861079018E+01   1.5875071901E+02   1.2500000000E+02  5.954E-08  -1.
3000002    2    3    0    0    0  -1.5935755907E+01  -5.6366424715E+01  -2.4332791898E+01   6.4212202213E+01   1.0000000000E+01  3.385E-11  -1.
3000002    2    3    0    0    0   1.5935755907E+01   5.6366424715E+01  -7.3528287120E+01   9.4538516797E+01   1.0000000000E+01  4.242E-10  -1.
3000001    1    4    0    0    0  -1.5102692597E+01  -5.3748673109E+01  -2.0485689733E+01   5.9478354622E+01   1.0000000000E+00     0.000  -1.
3000022   2   4   0   0   0   -8.3306331078E-01   -2.6177516052E+00   -3.8471021646E+00   4.7338475906E+00   2.5000000000E-01   4.695876E-01   0.
3000001    1    5    0    0    0   1.4751968413E+01   5.1961349180E+01  -6.2566777559E+01   8.2663196374E+01   1.0000000000E+00     0.000  -1.
3000022   2   5   0   0   0   1.1837874948E+00   4.4050755344E+00   -1.0961509562E+01   1.1875320424E+01   2.5000000000E-01   8.489460E-02   0.
13    1    7    0    0    0  -5.4699809673E-01  -1.5604855829E+00  -2.2417379424E+00   2.7876040204E+00   1.0500000000E-01     0.000  -1.
-13    1    7    0    0    0  -2.8606521405E-01  -1.0572660223E+00  -1.6053642222E+00   1.9462435702E+00   1.0500000000E-01     0.000   1.
13    1    9    0    0    0   3.5235703193E-01   1.4818482085E+00  -3.7429619041E+00   4.0423778159E+00   1.0500000000E-01     0.000   1.
-13    1    9    0    0    0   8.3143046285E-01   2.9232273259E+00  -7.2185476574E+00   7.8329426077E+00   1.0500000000E-01     0.000  -1.
</event>
<event>
 13   1  9.2978750E-05  1.2500000E+02  7.5467720E-03  1.2380620E-01
   21   -1    0    0  502  501   0.0000000000E+00   0.0000000000E+00   1.0550058715E+02   1.0550058715E+02   0.0000000000E+00     0.000   1.
   21   -1    0    0  501  502   0.0000000000E+00   0.0000000000E+00  -3.7025860287E+01   3.7025860287E+01   0.0000000000E+00     0.000   1.
   25    2    1    2    0    0   0.0000000000E+00   0.0000000000E+00   6.8474726863E+01   1.4252644744E+02   1.2500000000E+02  1.176E-07  -1.
3000002    2    3    0    0    0  -1.1193045747E+01  -5.8085697480E+01   5.4216052838E+01   8.0861690003E+01   1.0000000000E+01  3.121E-10  -1.
3000002    2    3    0    0    0   1.1193045747E+01   5.8085697480E+01   1.4258674025E+01   6.1664757437E+01   1.0000000000E+01  2.172E-10  -1.
3000001    1    4    0    0    0  -6.5513925998E+00  -5.0925473279E+01   4.8072781774E+01   7.0344274260E+01   1.0000000000E+00     0.000  -1.
3000022   2   4   0   0   0   -4.6416531471E+00   -7.1602242007E+00   6.1432710643E+00   1.0517415743E+01   2.5000000000E-01   8.977150E-01   0.
3000001    1    5    0    0    0   1.2086994913E+01   3.9273340276E+01   1.0998176420E+01   4.2549389973E+01   1.0000000000E+00     0.000   1.
3000022   2   5   0   0   0   -8.9394916574E-01   1.8812357203E+01   3.2604976043E+00   1.9115367464E+01   2.5000000000E-01   1.131909E+01   0.
13    1    7    0    0    0  -1.7482859680E+00  -2.7333252048E+00   2.2656014108E+00   3.9587302577E+00   1.0500000000E-01     0.000   1.
-13    1    7    0    0    0  -2.8933671791E+00  -4.4268989959E+00   3.8776696536E+00   6.5586854853E+00   1.0500000000E-01     0.000  -1.
13    1    9    0    0    0  -5.2422915130E-01   1.1386043992E+01   1.9120829561E+00   1.1557850155E+01   1.0500000000E-01     0.000   1.
-13    1    9    0    0    0  -3.6972001444E-01   7.4263132117E+00   1.3484146481E+00   7.5575173086E+00   1.0500000000E-01     0.000  -1.
</event>
<event>
 13   1  9.2978750E-05  1.2500000E+02  7.5467720E-03  1.2380620E-01
   21   -1    0    0  502  501   0.0000000000E+00   0.0000000000E+00   3.2554002098E+02   3.2554002098E+02   0.0000000000E+00     0.000   1.
   21   -1    0    0  501  502   0.0000000000E+00   0.0000000000E+00  -1.1999292708E+01   1.1999292708E+01   0.0000000000E+00     0.000   1.
   25    2    1    2    0    0   0.0000000000E+00   0.0000000000E+00   3.1354072827E+02   3.3753931369E+02   1.2500000000E+02  4.318E-08  -1.
3000002    2    3    0    0    0   1.3333529583E+01   5.8193368070E+01   1.9877730426E+02   2.0778996075E+02   1.0000000000E+01  8.606E-10   1.
3000002    2    3    0    0    0  -1.3333529583E+01  -5.8193368070E+01   1.1476342401E+02   1.2974935294E+02   1.0000000000E+01  9.020E-11   1.
3000001    1    4    0    0    0   3.3710133341E+00   3.2632186732E+01   1.1807645854E+02   1.2255314522E+02   1.0000000000E+00     0.000   1.
3000022   2   4   0   0   0   9.9625162488E+00   2.5561181338E+01   8.0700845717E+01   8.5236815525E+01   2.5000000000E-01   5.300938E+00   0.
3000001    1    5    0    0    0  -2.1616653587E+00  -1.1332613059E+01   3.1397682985E+01   3.3465137273E+01   1.0000000000E+00     0.000  -1.
3000022   2   5   0   0   0   -1.1171864224E+01   -4.6860755011E+01   8.3365741025E+01   9.6284215669E+01   2.5000000000E-01   2.352724E+00   0.
13    1    7    0    0    0   4.4133517059E+00   1.1410525671E+01   3.5807377301E+01   3.7839887203E+01   1.0500000000E-01     0.000  -1.
-13    1    7    0    0    0   5.5491645428E+00   1.4150655667E+01   4.4893468416E+01   4.7396928322E+01   1.0500000000E-01     0.000   1.
13    1    9    0    0    0  -5.5826302772E+00  -2.3617889557E+01   4.2095472244E+01   4.8590228199E+01   1.0500000000E-01     0.000  -1.
-13    1    9    0    0    0  -5.5892339471E+00  -2.3242865454E+01   4.1270268781E+01   4.7693987471E+01   1.0500000000E-01     0.000   1.
</event>
<event>
 13   1  9.2978750E-05  1.2500000E+02  7.5467720E-03  1.2380620E-01
   21   -1    0    0  502  501   0.0000000000E+00   0.0000000000E+00   1.0303236300E+02   1.0303236300E+02   0.0000000000E+00     0.000   1.
   21   -1    0    0  501  502   0.0000000000E+00   0.0000000000E+00  -3.7912844918E+01   3.7912844918E+01   0.0000000000E+00     0.000   1.
   25    2    1    2    0    0   0.0000000000E+00   0.0000000000E+00   6.5119518085E+01   1.4094520792E+02   1.2500000000E+02  2.590E-08  -1.
3000002    2    3    0    0    0  -4.4120805192E+01  -4.2415136195E+01   4.1334534230E+01   7.4526726409E+01   1.0000000000E+01  2.968E-10  -1.
3000002    2    3    0    0    0   4.4120805192E+01   4.2415136195E+01   2.3784983855E+01   6.6418481511E+01   1.0000000000E+01  1.938E-10  -1.
3000001    1    4    0    0    0  -1.3608110029E+01  -1.8008117941E+01   1.1416954765E+01   2.5314419338E+01   1.0000000000E+00     0.000   1.
3000022   2   4   0   0   0   -3.0512695163E+01   -2.4407018254E+01   2.9917579465E+01   4.9212307071E+01   2.5000000000E-01   5.762537E-01   0.
3000001    1    5    0    0    0   1.4200221756E+01   1.9763196443E+01   1.1459266796E+01   2.6917374075E+01   1.0000000000E+00     0.000   1.
3000022   2   5   0   0   0   2.9920583436E+01   2.2651939752E+01   1.2325717060E+01   3.9501107437E+01   2.5000000000E-01   7.619272E+00   0.
13    1    7    0    0    0  -1.2015573021E+01  -9.5641345037E+00   1.1695447793E+01   1.9303916388E+01   1.0500000000E-01     0.000   1.
-13    1    7    0    0    0  -1.8497122142E+01  -1.4842883751E+01   1.8222131672E+01   2.9908390683E+01   1.0500000000E-01     0.000  -1.
13    1    9    0    0    0   1.3845476170E+01   1.0559029727E+01   5.6901792870E+00   1.8318828687E+01   1.0500000000E-01     0.000   1.
-13    1    9    0    0    0   1.6075107266E+01   1.2092910025E+01   6.6355377724E+00   2.1182278750E+01   1.0500000000E-01     0.000  -1.
</event>
<event>
 13   1  9.2978750E-05  1.2500000E+02  7.5467720E-03  1.2380620E-01
   21   -1    0    0  502  501   0.0000000000E+00   0.0000000000E+00   5.3195638081E+01   5.3195638081E+01   0.0000000000E+00     0.000   1.
   21   -1    0    0  501  502   0.0000000000E+00   0.0000000000E+00  -7.3431772621E+01   7.3431772621E+01   0.0000000000E+00     0.000   1.
   25    2    1    2    0    0   0.0000000000E+00   0.0000000000E+00  -2.0236134540E+01   1.2662741070E+02   1.2500000000E+02  5.972E-08  -1.
3000002    2    3    0    0    0   1.9844296987E+01  -4.8352086634E+01   2.3088723379E+01   5.8006978477E+01   1.0000000000E+01  1.186E-09   1.
3000002    2    3    0    0    0  -1.9844296987E+01   4.8352086634E+01  -4.3324857919E+01   6.8620432223E+01   1.0000000000E+01  3.129E-10   1.
3000001    1    4    0    0    0   1.0407530899E+01  -1.3788038374E+01   6.0413041534E+00   1.8328231161E+01   1.0000000000E+00     0.000  -1.
3000022   2   4   0   0   0   9.4367660882E+00   -3.4564048260E+01   1.7047419226E+01   3.9678747316E+01   2.5000000000E-01   1.058194E+00   0.
3000001    1    5    0    0    0  -1.6889719984E+01   3.4806621963E+01  -2.6932725710E+01   4.7150135607E+01   1.0000000000E+00     0.000   1.
3000022   2   5   0   0   0   -2.9545770037E+00   1.3545464671E+01   -1.6392132209E+01   2.1470296616E+01   2.5000000000E-01   2.720411E+00   0.
13    1    7    0    0    0   3.3349148707E+00  -1.2003932116E+01   5.9368473188E+00   1.3801203735E+01   1.0500000000E-01     0.000   1.
-13    1    7    0    0    0   6.1018512175E+00  -2.2560116144E+01   1.1110571907E+01   2.5877543582E+01   1.0500000000E-01     0.000  -1.
13    1    9    0    0    0  -1.2790696555E+00   5.5824425812E+00  -6.8071409775E+00   8.8965092954E+00   1.0500000000E-01     0.000   1.
-13    1    9    0    0    0  -1.6755073482E+00   7.9630220900E+00  -9.5849912312E+00   1.2573787321E+01   1.0500000000E-01     0.000  -1.
</event>
<event>
 13   1  9.2978750E-05  1.2500000E+02  7.5467720E-03  1.2380620E-01
   21   -1    0    0  502  501   0.0000000000E+00   0.0000000000E+00   3.9668107026E+01   3.9668107026E+01   0.0000000000E+00     0.000   1.
   21   -1    0    0  501  502   0.0000000000E+00   0.0000000000E+00  -9.8473315036E+01   9.8473315036E+01   0.0000000000E+00     0.000   1.
   25    2    1    2    0    0   0.0000000000E+00   0.0000000000E+00  -5.8805208010E+01   1.3814142206E+02   1.2500000000E+02  3.462E-08  -1.
3000002    2    3    0    0    0  -5.0079405581E+01  -3.5617890118E+01  -3.5422176609E+01   7.1633173569E+01   1.0000000000E+01  3.287E-10  -1.
3000002    2    3    0    0    0   5.0079405581E+01   3.5617890118E+01  -2.3383031401E+01   6.6508248491E+01   1.0000000000E+01  2.221E-10  -1.
3000001    1    4    0    0    0  -2.5403051176E+01  -2.3964022384E+01  -1.8705479200E+01   3.9629336734E+01   1.0000000000E+00     0.000  -1.
3000022   2   4   0   0   0   -2.4676354405E+01   -1.1653867734E+01   -1.6716697409E+01   3.2003836835E+01   2.5000000000E-01   9.007158E+00   0.
3000001    1    5    0    0    0   2.3955265295E+01   1.3350967480E+01  -1.4557282830E+01   3.1064731633E+01   1.0000000000E+00     0.000  -1.
3000022   2   5   0   0   0   2.6124140286E+01   2.2266922638E+01   -8.8257485715E+00   3.5443516858E+01   2.5000000000E-01   1.208452E+01   0.
13    1    7    0    0    0  -1.3703288441E+01  -6.3985568501E+00  -9.2556193991E+00   1.7731304501E+01   1.0500000000E-01     0.000   1.
-13    1    7    0    0    0  -1.0973065964E+01  -5.2553108841E+00  -7.4610780099E+00   1.4272532334E+01   1.0500000000E-01     0.000  -1.
13    1    9    0    0    0   9.9254602103E+00   8.3803572003E+00  -3.3376341590E+00   1.3412530483E+01   1.0500000000E-01     0.000  -1.
-13    1    9    0    0    0   1.6198680076E+01   1.3886565438E+01  -5.4881144125E+00   2.2030986375E+01   1.0500000000E-01     0.000   1.
</event>
<event>
 13   1  9.2978750E-05  1.2500000E+02  7.5467720E-03  1.2380620E-01
   21   -1    0    0  502  501   0.0000000000E+00   0.0000000000E+00   5.0546616000E+00   5.0546616000E+00   0.0000000000E+00     0.000  -1.
   21   -1    0    0  501  502   0.0000000000E+00   0.0000000000E+00  -7.7280148686E+02   7.7280148686E+02   0.0000000000E+00     0.000  -1.
   25    2    1    2    0    0   0.0000000000E+00   0.0000000000E+00  -7.6774682526E+02   7.7785614846E+02   1.2500000000E+02  1.336E-08  -1.
3000002    2    3    0    0    0  -3.1937516439E+01   4.2800651307E+01  -1.9163376862E+02   1.9918685193E+02   1.0000000000E+01  1.197E-09  -1.
3000002    2    3    0    0    0   3.1937516439E+01  -4.2800651307E+01  -5.7611305664E+02   5.7866929653E+02   1.0000000000E+01  5.722E-11  -1.
3000001    1    4    0    0    0  -1.4816075840E+01   2.6347669822E+01  -9.6152734607E+01   1.0079714371E+02   1.0000000000E+00     0.000  -1.
3000022   2   4   0   0   0   -1.7121440599E+01   1.6452981485E+01   -9.5481034009E+01   9.8389708219E+01   2.5000000000E-01   2.021589E+00   0.
3000001    1    5    0    0    0   2.9727177183E+01  -3.6004745242E+01  -5.2218495855E+02   5.2426918437E+02   1.0000000000E+00     0.000  -1.
3000022   2   5   0   0   0   2.2103392559E+00   -6.7959060643E+00   -5.3928098091E+01   5.4400112156E+01   2.5000000000E-01   1.544087E+01   0.
13    1    7    0    0    0  -1.2128935292E+01   1.1664389587E+01  -6.7839786817E+01   6.9895756353E+01   1.0500000000E-01     0.000   1.
-13    1    7    0    0    0  -4.9925053067E+00   4.7885918976E+00  -2.7641247192E+01   2.8493951866E+01   1.0500000000E-01     0.000  -1.
13    1    9    0    0    0   5.5197844409E-01  -1.6436552893E+00  -1.3205759150E+01   1.3319511351E+01   1.0500000000E-01     0.000  -1.
-13    1    9    0    0    0   1.6583608118E+00  -5.1522507750E+00  -4.0722338942E+01   4.1080600805E+01   1.0500000000E-01     0.000   1.
</event>
<event>
 13   1  9.2978750E-05  1.2500000E+02  7.5467720E-03  1.2380620E-01
   21   -1    0    0  502  501   0.0000000000E+00   0.0000000000E+00   3.9951366028E+02   3.9951366028E+02   0.0000000000E+00     0.000  -1.
   21   -1    0    0  501  502   0.0000000000E+00   0.0000000000E+00  -9.7775129823E+00   9.7775129823E+00   0.0000000000E+00     0.000  -1.
   25    2    1    2    0    0   0.0000000000E+00   0.0000000000E+00   3.8973614730E+02   4.0929117326E+02   1.2500000000E+02  8.634E-08  -1.
3000002    2    3    0    0    0  -5.2836332849E+01   1.7983000073E+01   2.8095140994E+02   2.8661605173E+02   1.0000000000E+01  6.384E-10  -1.
3000002    2    3    0    0    0   5.2836332849E+01  -1.7983000073E+01   1.0878473736E+02   1.2267512153E+02   1.0000000000E+01  2.274E-09  -1.
3000001    1    4    0    0    0  -1.6652305701E+01   5.9089682111E+00   1.1374054360E+02   1.1510919359E+02   1.0000000000E+00     0.000   1.
3000022   2   4   0   0   0   -3.6184027148E+01   1.2074031861E+01   1.6721086634E+02   1.7150685814E+02   2.5000000000E-01   5.861896E-01   0.
3000001    1    5    0    0    0   6.3768894341E+00  -1.9173746391E-01   8.0084044249E+00   1.0287663658E+01   1.0000000000E+00     0.000   1.
3000022   2   5   0   0   0   4.6459443414E+01   -1.7791262609E+01   1.0077633293E+02   1.1238745787E+02   2.5000000000E-01   4.650487E+00   0.
13    1    7    0    0    0  -2.2134658025E+01   7.3223981009E+00   1.0213609592E+02   1.0476332237E+02   1.0500000000E-01     0.000   1.
-13    1    7    0    0    0  -1.4049369123E+01   4.7516337605E+00   6.5074770422E+01   6.6743535766E+01   1.0500000000E-01     0.000  -1.
13    1    9    0    0    0   2.2255502744E+01  -8.5316654223E+00   4.8130063591E+01   5.3708572533E+01   1.0500000000E-01     0.000   1.
-13    1    9    0    0    0   2.4203940670E+01  -9.2595971863E+00   5.2646269342E+01   5.8678885339E+01   1.0500000000E-01     0.000  -1.
</event>
<event>
 13   1  9.2978750E-05  1.2500000E+02  7.5467720E-03  1.2380620E-01
   21   -1    0    0  502  501   0.0000000000E+00   0.0000000000E+00   2.7147531160E+02   2.7147531160E+02   0.0000000000E+00     0.000   1.
   21   -1    0    0  501  502   0.0000000000E+00   0.0000000000E+00  -1.4388969579E+01   1.4388969579E+01   0.0000000000E+00     0.000   1.
   25    2    1    2    0    0   0.0000000000E+00   0.0000000000E+00   2.5708634202E+02   2.8586428118E+02   1.2500000000E+02  5.573E-08  -1.
3000002    2    3    0    0    0  -3.7987430328E+01  -3.1784801625E+01   4.4425393723E+01   6.7282494638E+01   1.0000000000E+01  4.367E-11  -1.
3000002    2    3    0    0    0   3.7987430328E+01   3.1784801625E+01   2.1266094830E+02   2.1858178654E+02   1.0000000000E+01  9.507E-10  -1.
3000001    1    4    0    0    0  -2.5312479243E+01  -2.2938093354E+01   3.6155904139E+01   4.9750649606E+01   1.0000000000E+00     0.000  -1.
3000022   2   4   0   0   0   -1.2674951085E+01   -8.8467082712E+00   8.2694895848E+00   1.7531845032E+01   2.5000000000E-01   1.189139E+01   0.
3000001    1    5    0    0    0   3.7325315375E+01   2.9335380725E+01   1.9296499515E+02   1.9872149628E+02   1.0000000000E+00     0.000  -1.
3000022   2   5   0   0   0   6.6211495299E-01   2.4494209004E+00   1.9695953149E+01   1.9860290265E+01   2.5000000000E-01   1.123751E+01   0.
13    1    7    0    0    0  -8.6107662144E+00  -5.9705645859E+00   5.6504379883E+00   1.1905100198E+01   1.0500000000E-01     0.000  -1.
-13    1    7    0    0    0  -4.0641848706E+00  -2.8761436853E+00   2.6190515965E+00   5.6267448339E+00   1.0500000000E-01     0.000   1.
13    1    9    0    0    0   3.6044550660E-01   1.1096359635E+00   9.3097049559E+00   9.3831148506E+00   1.0500000000E-01     0.000  -1.
-13    1    9    0    0    0   3.0166944639E-01   1.3397849369E+00   1.0386248193E+01   1.0477175414E+01   1.0500000000E-01     0.000   1.
</event>
<event>
 13   1  9.2978750E-05  1.2500000E+02  7.5467720E-03  1.2380620E-01
   21   -1    0    0  502  501   0.0000000000E+00   0.0000000000E+00   7.0276246125E+00   7.0276246125E+00   0.0000000000E+00     0.000   1.
   21   -1    0    0  501  502   0.0000000000E+00   0.0000000000E+00  -5.5584215370E+02   5.5584215370E+02   0.0000000000E+00     0.000   1.
   25    2    1    2    0    0   0.0000000000E+00   0.0000000000E+00  -5.4881452909E+02   5.6286977831E+02   1.2500000000E+02  3.327E-08  -1.
3000002    2    3    0    0    0  -1.3123096954E+01   5.8398188177E+01  -2.0706041814E+02   2.1576974027E+02   1.0000000000E+01  7.575E-11   1.
3000002    2    3    0    0    0   1.3123096954E+01  -5.8398188177E+01  -3.4175411095E+02   3.4710003804E+02   1.0000000000E+01  1.089E-09   1.
3000001    1    4    0    0    0  -6.9512463723E+00   3.2225942922E+01  -1.3126855650E+02   1.3534867989E+02   1.0000000000E+00     0.000   1.
3000022   2   4   0   0   0   -6.1718505819E+00   2.6172245255E+01   -7.5791861647E+01   8.0421060383E+01   2.5000000000E-01   2.250003E+00   0.
3000001    1    5    0    0    0   5.1269785421E+00  -3.7921201514E+01  -1.9679469569E+02   2.0048305585E+02   1.0000000000E+00     0.000   1.
3000022   2   5   0   0   0   7.9961184122E+00   -2.0476986663E+01   -1.4495941526E+02   1.4661698219E+02   2.5000000000E-01   9.243114E-01   0.
13    1    7    0    0    0  -1.9653758979E+00   8.2652679517E+00  -2.4088296622E+01   2.5542795773E+01   1.0500000000E-01     0.000   1.
-13    1    7    0    0    0  -4.2064746841E+00   1.7906977303E+01  -5.1703565024E+01   5.4878264610E+01   1.0500000000E-01     0.000  -1.
13    1    9    0    0    0   3.0094412321E+00  -7.8250877390E+00  -5.4997994077E+01   5.5633435200E+01   1.0500000000E-01     0.000  -1.
-13    1    9    0    0    0   4.9866771801E+00  -1.2651898924E+01  -8.9961421184E+01   9.0983546986E+01   1.0500000000E-01     0.000   1.
</event>
<event>
 13   1  9.2978750E-05  1.2500000E+02  7.5467720E-03  1.2380620E-01
   21   -1    0    0  502  501   0.0000000000E+00   0.0000000000E+00   1.1467725579E+01   1.1467725579E+01   0.0000000000E+00     0.000  -1.
   21   -1    0    0  501  502   0.0000000000E+00   0.0000000000E+00  -3.4062988106E+02   3.4062988106E+02   0.0000000000E+00     0.000  -1.
   25    2    1    2    0    0   0.0000000000E+00   0.0000000000E+00  -3.2916215548E+02   3.5209760664E+02   1.2500000000E+02  4.157E-08  -1.
3000002    2    3    0    0    0  -6.0529215606E+01   9.5496195458E-01  -1.3106823815E+02   1.4471897231E+02   1.0000000000E+01  5.745E-10   1.
3000002    2    3    0    0    0   6.0529215606E+01  -9.5496195458E-01  -1.9809391733E+02   2.0737863433E+02   1.0000000000E+01  2.947E-11   1.
3000001    1    4    0    0    0  -1.2868042806E+01  -8.7204535217E-01  -1.9712100202E+01   2.3577826090E+01   1.0000000000E+00     0.000  -1.
3000022   2   4   0   0   0   -4.7661172800E+01   1.8270073067E+00   -1.1135613795E+02   1.2114114622E+02   2.5000000000E-01   2.062767E+01   0.
3000001    1    5    0    0    0   3.2419847800E+01  -4.5774259828E+00  -1.1560783108E+02   1.2015893627E+02   1.0000000000E+00     0.000   1.
3000022   2   5   0   0   0   2.8109367806E+01   3.6224640282E+00   -8.2486086251E+01   8.7219698057E+01   2.5000000000E-01   6.420768E+00   0.
13    1    7    0    0    0  -1.8347131124E+01   6.4202895159E-01  -4.2873450616E+01   4.6638752282E+01   1.0500000000E-01     0.000  -1.
-13    1    7    0    0    0  -2.9314041675E+01   1.1849783552E+00  -6.8482687333E+01   7.4502393937E+01   1.0500000000E-01     0.000   1.
13    1    9    0    0    0   1.1882212532E+01   1.4857021707E+00  -3.4707771759E+01   3.6715592478E+01   1.0500000000E-01     0.000  -1.
-13    1    9    0    0    0   1.6227155274E+01   2.1367618575E+00  -4.7778314493E+01   5.0504105579E+01   1.0500000000E-01     0.000   1.
</event>
<event>
 13   1  9.2978750E-05  1.2500000E+02  7.5467720E-03  1.2380620E-01
   21   -1    0    0  502  501   0.0000000000E+00   0.0000000000E+00   4.8804749070E+01   4.8804749070E+01   0.0000000000E+00     0.000  -1.
   21   -1    0    0  501  502   0.0000000000E+00   0.0000000000E+00  -8.0038317467E+01   8.0038317467E+01   0.0000000000E+00     0.000  -1.
   25    2    1    2    0    0   0.0000000000E+00   0.0000000000E+00  -3.1233568397E+01   1.2884306654E+02   1.2500000000E+02  5.168E-09  -1.
3000002    2    3    0    0    0  -1.1609017896E+01   8.1143900938E+00  -7.7509859658E+01   7.9425379869E+01   1.0000000000E+01  3.770E-10   1.
3000002    2    3    0    0    0   1.1609017896E+01  -8.1143900938E+00   4.6276291261E+01   4.9417686671E+01   1.0000000000E+01  8.628E-10   1.
3000001    1    4    0    0    0  -3.9857136169E+00   4.4170468928E+00  -1.2660678326E+01   1.4024585269E+01   1.0000000000E+00     0.000  -1.
3000022   2   4   0   0   0   -7.6233042792E+00   3.6973432010E+00   -6.4849181332E+01   6.5400794600E+01   2.5000000000E-01   7.095158E+00   0.
3000001    1    5    0    0    0   1.4391719058E-01  -2.8166296493E+00   2.6425656773E+00   3.9921508110E+00   1.0000000000E+00     0.000  -1.
3000022   2   5   0   0   0   1.1465100706E+01   -5.2977604445E+00   4.3633725583E+01   4.5425535860E+01   2.5000000000E-01   9.206973E+00   0.
13    1    7    0    0    0  -5.8802213671E+00   2.8527764597E+00  -5.0011342988E+01   5.0436700818E+01   1.0500000000E-01     0.000  -1.
-13    1    7    0    0    0  -1.7430829121E+00   8.4456674122E-01  -1.4837838343E+01   1.4964093782E+01   1.0500000000E-01     0.000   1.
13    1    9    0    0    0   4.1607666992E+00  -1.9062391450E+00   1.6016931887E+01   1.6658297010E+01   1.0500000000E-01     0.000  -1.
-13    1    9    0    0    0   7.3043340064E+00  -3.3915212995E+00   2.7616793697E+01   2.8767238851E+01   1.0500000000E-01     0.000   1.
</event>
<event>
 13   1  9.2978750E-05  1.2500000E+02  7.5467720E-03  1.2380620E-01
   21   -1    0    0  502  501   0.0000000000E+00   0.0000000000E+00   1.0988470729E+03   1.0988470729E+03   0.0000000000E+00     0.000  -1.
   21   -1    0    0  501  502   0.0000000000E+00   0.0000000000E+00  -3.5548622701E+00   3.5548622701E+00   0.0000000000E+00     0.000  -1.
   25    2    1    2    0    0   0.0000000000E+00   0.0000000000E+00   1.0952922106E+03   1.1024019352E+03   1.2500000000E+02  2.145E-08  -1.
3000002    2    3    0    0    0  -4.2228686876E+01   3.9557514092E+01   3.5886727775E+02   3.6363963199E+02   1.0000000000E+01  5.813E-10   1.
3000002    2    3    0    0    0   4.2228686876E+01  -3.9557514092E+01   7.3642493285E+02   7.3876230321E+02   1.0000000000E+01  1.171E-09   1.
3000001    1    4    0    0    0  -3.7472224482E+01   3.3422169428E+01   3.2731132680E+02   3.3114183316E+02   1.0000000000E+00     0.000   1.
3000022   2   4   0   0   0   -4.7564623940E+00   6.1353446647E+00   3.1555950956E+01   3.2497798839E+01   2.5000000000E-01   7.884267E-01   0.
3000001    1    5    0    0    0   9.7205192519E-01  -3.7273920929E+00   6.1732792165E+01   6.1860940547E+01   1.0000000000E+00     0.000  -1.
3000022   2   5   0   0   0   4.1256634950E+01   -3.5830122000E+01   6.7469214068E+02   6.7690136266E+02   2.5000000000E-01   1.318530E+01   0.
13    1    7    0    0    0  -3.0967865468E+00   3.9578298118E+00   2.0641350004E+01   2.1244548918E+01   1.0500000000E-01     0.000  -1.
-13    1    7    0    0    0  -1.6596758471E+00   2.1775148530E+00   1.0914600952E+01   1.1253249922E+01   1.0500000000E-01     0.000   1.
13    1    9    0    0    0   1.6255957421E+01  -1.4062773369E+01   2.6597463345E+02   2.6684177786E+02   1.0500000000E-01     0.000  -1.
-13    1    9    0    0    0   2.5000677529E+01  -2.1767348631E+01   4.0871750723E+02   4.1005958480E+02   1.0500000000E-01     0.000   1.
</event>
<event>
 13   1  9.2978750E-05  1.2500000E+02  7.5467720E-03  1.2380620E-01
   21   -1    0    0  502  501   0.0000000000E+00   0.0000000000E+00   6.7316793186E+01   6.7316793186E+01   0.0000000000E+00     0.000  -1.
   21   -1    0    0  501  502   0.0000000000E+00   0.0000000000E+00  -5.8027868161E+01   5.8027868161E+01   0.0000000000E+00     0.000  -1.
   25    2    1    2    0    0   0.0000000000E+00   0.0000000000E+00   9.2889250246E+00   1.2534466135E+02   1.2500000000E+02  2.831E-08  -1.
3000002    2    3    0    0    0   1.5270402313E+01  -3.6279925133E+01  -4.2992649983E+01   5.9142084061E+01   1.0000000000E+01  1.237E-09   1.
3000002    2    3    0    0    0  -1.5270402313E+01   3.6279925133E+01   5.2281575008E+01   6.6202577289E+01   1.0000000000E+01  3.714E-10   1.
3000001    1    4    0    0    0   1.4020978827E+01  -3.5755309845E+01  -4.3126700140E+01   5.7757616765E+01   1.0000000000E+00     0.000   1.
3000022   2   4   0   0   0   1.2494234868E+00   -5.2461528759E-01   1.3405015652E-01   1.3844672960E+00   2.5000000000E-01   9.693766E+00   0.
3000001    1    5    0    0    0  -1.5921714549E+01   3.2013529061E+01   4.9467671215E+01   6.1044389854E+01   1.0000000000E+00     0.000   1.
3000022   2   5   0   0   0   6.5131223566E-01   4.2663960718E+00   2.8139037925E+00   5.1581874359E+00   2.5000000000E-01   1.250404E+00   0.
13    1    7    0    0    0   6.3972487712E-01  -2.4626311814E-01   1.3266264485E-01   7.0605794316E-01   1.0500000000E-01     0.000  -1.
-13    1    7    0    0    0   6.0969860967E-01  -2.7835216945E-01   1.3875116625E-03   6.7840935287E-01   1.0500000000E-01     0.000   1.
13    1    9    0    0    0   3.5256836058E-01   2.2167755341E+00   1.5422376626E+00   2.7254211097E+00   1.0500000000E-01     0.000  -1.
-13    1    9    0    0    0   2.9874387507E-01   2.0496205378E+00   1.2716661299E+00   2.4327663262E+00   1.0500000000E-01     0.000   1.
</event>
<event>
 13   1  9.2978750E-05  1.2500000E+02  7.5467720E-03  1.2380620E-01
   21   -1    0    0  502  501   0.0000000000E+00   0.0000000000E+00   1.3393937553E+02   1.3393937553E+02   0.0000000000E+00     0.000  -1.
   21   -1    0    0  501  502   0.0000000000E+00   0.0000000000E+00  -2.9164313964E+01   2.9164313964E+01   0.0000000000E+00     0.000  -1.
   25    2    1    2    0    0   0.0000000000E+00   0.0000000000E+00   1.0477506156E+02   1.6310368949E+02   1.2500000000E+02  8.866E-09  -1.
3000002    2    3    0    0    0  -6.4495733920E+00   5.1266979503E+01   9.6373057308E+01   1.0980740576E+02   1.0000000000E+01  3.988E-10   1.
3000002    2    3    0    0    0   6.4495733920E+00  -5.1266979503E+01   8.4020042521E+00   5.3296283733E+01   1.0000000000E+01  8.832E-10   1.
3000001    1    4    0    0    0  -5.0731261433E+00   3.8315119359E+01   6.2215188213E+01   7.3249673205E+01   1.0000000000E+00     0.000   1.
3000022   2   4   0   0   0   -1.3764472487E+00   1.2951860144E+01   3.4157869095E+01   3.6557732552E+01   2.5000000000E-01   9.447474E+00   0.
3000001    1    5    0    0    0   7.1798728120E-01  -2.8680671930E+01   8.6814662424E+00   2.9991070408E+01   1.0000000000E+00     0.000   1.
3000022   2   5   0   0   0   5.7315861108E+00   -2.2586307573E+01   -2.7946199026E-01   2.3305213325E+01   2.5000000000E-01   1.093110E+00   0.
13    1    7    0    0    0  -3.1756230739E-01   3.0722148183E+00   8.1432343998E+00   8.7099162567E+00   1.0500000000E-01     0.000  -1.
-13    1    7    0    0    0  -1.0588849413E+00   9.8796453257E+00   2.6014634696E+01   2.7847816295E+01   1.0500000000E-01     0.000   1.
13    1    9    0    0    0   2.9401226248E+00  -1.1353259193E+01  -1.7698856404E-01   1.1729585044E+01   1.0500000000E-01     0.000   1.
-13    1    9    0    0    0   2.7914634860E+00  -1.1233048380E+01  -1.0247342621E-01   1.1575628281E+01   1.0500000000E-01     0.000  -1.
</event>
<event>
 13   1  9.2978750E-05  1.2500000E+02  7.5467720E-03  1.2380620E-01
   21   -1    0    0  502  501   0.0000000000E+00   0.0000000000E+00   1.7843985059E+02   1.7843985059E+02   0.0000000000E+00     0.000  -1.
   21   -1    0    0  501  502   0.0000000000E+00   0.0000000000E+00  -2.1891130188E+01   2.1891130188E+01   0.0000000000E+00     0.000  -1.
   25    2    1    2    0    0   0.0000000000E+00   0.0000000000E+00   1.5654872040E+02   2.0033098078E+02   1.2500000000E+02  4.579E-08  -1.
3000002    2    3    0    0    0  -4.0403261956E+01  -2.5587738913E+01   1.4073845263E+02   1.4897807895E+02   1.0000000000E+01  1.683E-10   1.
3000002    2    3    0    0    0   4.0403261956E+01   2.5587738913E+01   1.5810267772E+01   5.1352901830E+01   1.0000000000E+01  5.787E-10   1.
3000001    1    4    0    0    0  -8.3168965538E+00  -8.6908170483E+00   4.5345437276E+01   4.6924511197E+01   1.0000000000E+00     0.000  -1.
3000022   2   4   0   0   0   -3.2086365402E+01   -1.6896921865E+01   9.5393015352E+01   1.0205356775E+02   2.5000000000E-01   5.226004E+00   0.
3000001    1    5    0    0    0   3.3355030761E+01   1.7747716827E+01   1.5359884739E+01   4.0797862552E+01   1.0000000000E+00     0.000  -1.
3000022   2   5   0   0   0   7.0482311952E+00   7.8400220858E+00   4.5038303325E-01   1.0555039278E+01   2.5000000000E-01   3.546660E+00   0.
13    1    7    0    0    0  -1.3751265504E+01  -7.2249847639E+00   4.0683250368E+01   4.3548083693E+01   1.0500000000E-01     0.000   1.
-13    1    7    0    0    0  -1.8335099898E+01  -9.6719371008E+00   5.4709764984E+01   5.8505484061E+01   1.0500000000E-01     0.000  -1.
13    1    9    0    0    0   4.8758225997E+00   5.4934220113E+00   3.1233789490E-01   7.3525445513E+00   1.0500000000E-01     0.000   1.
-13    1    9    0    0    0   2.1724085956E+00   2.3466000745E+00   1.3804513835E-01   3.2024947269E+00   1.0500000000E-01     0.000  -1.
</event>
<event>
 13   1  9.2978750E-05  1.2500000E+02  7.5467720E-03  1.2380620E-01
   21   -1    0    0  502  501   0.0000000000E+00   0.0000000000E+00   1.6806398917E+02   1.6806398917E+02   0.0000000000E+00     0.000   1.
   21   -1    0    0  501  502   0.0000000000E+00   0.0000000000E+00  -2.3242635256E+01   2.3242635256E+01   0.0000000000E+00     0.000   1.
   25    2    1    2    0    0   0.0000000000E+00   0.0000000000E+00   1.4482135391E+02   1.9130662443E+02   1.2500000000E+02  2.550E-08  -1.
3000002    2    3    0    0    0  -2.1638462289E+00  -6.0290025889E+01   9.2169562974E+01   1.1061102021E+02   1.0000000000E+01  1.079E-09   1.
3000002    2    3    0    0    0   2.1638462289E+00   6.0290025889E+01   5.2651790936E+01   8.0695604223E+01   1.0000000000E+01  4.403E-11   1.
3000001    1    4    0    0    0   1.1967505232E+00  -2.5003733055E+01   3.0392486760E+01   3.9386826858E+01   1.0000000000E+00     0.000   1.
3000022   2   4   0   0   0   -3.3605967521E+00   -3.5286292835E+01   6.1777076215E+01   7.1224193349E+01   2.5000000000E-01   9.933935E+00   0.
3000001    1    5    0    0    0   7.6390510465E-02   5.4133867988E+01   4.9905192786E+01   7.3634297483E+01   1.0000000000E+00     0.000   1.
3000022   2   5   0   0   0   2.0874557184E+00   6.1561579014E+00   2.7465981500E+00   7.0613067403E+00   2.5000000000E-01   7.170605E+00   0.
13    1    7    0    0    0  -1.7179745941E+00  -1.8742191768E+01   3.2782228400E+01   3.7800882435E+01   1.0500000000E-01     0.000  -1.
-13    1    7    0    0    0  -1.6426221580E+00  -1.6544101066E+01   2.8994847815E+01   3.3423310914E+01   1.0500000000E-01     0.000   1.
13    1    9    0    0    0   7.7697115809E-01   2.1676306164E+00   9.2870992216E-01   2.4851224898E+00   1.0500000000E-01     0.000   1.
-13    1    9    0    0    0   1.3104845603E+00   3.9885272850E+00   1.8178882278E+00   4.5761842505E+00   1.0500000000E-01     0.000  -1.
</event>
<event>
 13   1  9.2978750E-05  1.2500000E+02  7.5467720E-03  1.2380620E-01
   21   -1    0    0  502  501   0.0000000000E+00   0.0000000000E+00   4.1866837946E+01   4.1866837946E+01   0.0000000000E+00     0.000   1.
   21   -1    0    0  501  502   0.0000000000E+00   0.0000000000E+00  -9.3301767977E+01   9.3301767977E+01   0.0000000000E+00     0.000   1.
   25    2    1    2    0    0   0.0000000000E+00   0.0000000000E+00  -5.1434930031E+01   1.3516860592E+02   1.2500000000E+02  4.766E-08  -1.
3000002    2    3    0    0    0  -2.9275170331E+01   2.6435926631E+01   2.5579474314E+01   4.8064574490E+01   1.0000000000E+01  9.885E-10  -1.
3000002    2    3    0    0    0   2.9275170331E+01  -2.6435926631E+01  -7.7014404345E+01   8.7104031430E+01   1.0000000000E+01  9.781E-10  -1.
3000001    1    4    0    0    0  -1.0128306980E+01   1.2556020867E+01   5.6014417450E+00   1.7105917454E+01   1.0000000000E+00     0.000   1.
3000022   2   4   0   0   0   -1.9146863351E+01   1.3879905763E+01   1.9978032569E+01   3.0958657036E+01   2.5000000000E-01   7.677550E-01   0.
3000001    1    5    0    0    0   2.6670018236E+01  -2.0342397364E+01  -6.8792258392E+01   7.6540693869E+01   1.0000000000E+00     0.000  -1.
3000022   2   5   0   0   0   2.6051520952E+00   -6.0935292665E+00   -8.2221459527E+00   1.0563337561E+01   2.5000000000E-01   8.365949E+00   0.
13    1    7    0    0    0  -1.3084296506E+01   9.5127775728E+00   1.3607399517E+01   2.1139160315E+01   1.0500000000E-01     0.000   1.
-13    1    7    0    0    0  -6.0625668446E+00   4.3671281904E+00   6.3706330522E+00   9.8194967215E+00   1.0500000000E-01     0.000  -1.
13    1    9    0    0    0   7.1946297970E-01  -1.7883784049E+00  -2.4129075969E+00   3.0901573373E+00   1.0500000000E-01     0.000   1.
-13    1    9    0    0    0   1.8856891155E+00  -4.3051508616E+00  -5.8092383557E+00   7.4731802237E+00   1.0500000000E-01     0.000  -1.
</event>
<event>
 13   1  9.2978750E-05  1.2500000E+02  7.5467720E-03  1.2380620E-01
   21   -1    0    0  502  501   0.0000000000E+00   0.0000000000E+00   1.8576694233E+01   1.8576694233E+01   0.0000000000E+00     0.000  -1.
   21   -1    0    0  501  502   0.0000000000E+00   0.0000000000E+00  -2.1027691747E+02   2.1027691747E+02   0.0000000000E+00     0.000  -1.
   25    2    1    2    0    0   0.0000000000E+00   0.0000000000E+00  -1.9170022323E+02   2.2885361170E+02   1.2500000000E+02  4.429E-08  -1.
3000002    2    3    0    0    0   3.7927131771E+01   8.6879147211E+00  -8.1936871926E+00   4.1001020675E+01   1.0000000000E+01  3.021E-10  -1.
3000002    2    3    0    0    0  -3.7927131771E+01  -8.6879147211E+00  -1.8350653604E+02   1.8785259103E+02   1.0000000000E+01  3.504E-10  -1.
3000001    1    4    0    0    0   3.8534525411E+01   8.3768559426E+00  -8.0468439762E+00   4.0259571062E+01   1.0000000000E+00     0.000  -1.
3000022   2   4   0   0   0   -6.0739364017E-01   3.1105877850E-01   -1.4684321641E-01   7.4144961259E-01   2.5000000000E-01   1.081261E+00   0.
3000001    1    5    0    0    0  -1.2651168518E+01  -6.6851040613E+00  -8.0729996375E+01   8.1994359537E+01   1.0000000000E+00     0.000  -1.
3000022   2   5   0   0   0   -2.5275963253E+01   -2.0028106599E+00   -1.0277653966E+02   1.0585823149E+02   2.5000000000E-01   4.550896E+00   0.
13    1    7    0    0    0  -3.2701166263E-01   2.1759044043E-01  -3.3530292880E-02   4.0796017919E-01   1.0500000000E-01     0.000  -1.
-13    1    7    0    0    0  -2.8038197754E-01   9.3468338077E-02  -1.1331292353E-01   3.3348943341E-01   1.0500000000E-01     0.000   1.
13    1    9    0    0    0  -1.7587343270E+01  -1.4338911617E+00  -7.1423135910E+01   7.3570687474E+01   1.0500000000E-01     0.000  -1.
-13    1    9    0    0    0  -7.6886199825E+00  -5.6891949823E-01  -3.1353403753E+01   3.2287544015E+01   1.0500000000E-01     0.000   1.
</event>
<event>
 13   1  9.2978750E-05  1.2500000E+02  7.5467720E-03  1.2380620E-01
   21   -1    0    0  502  501   0.0000000000E+00   0.0000000000E+00   1.1081843974E+02   1.1081843974E+02   0.0000000000E+00     0.000  -1.
   21   -1    0    0  501  502   0.0000000000E+00   0.0000000000E+00  -3.5249097617E+01   3.5249097617E+01   0.0000000000E+00     0.000  -1.
   25    2    1    2    0    0   0.0000000000E+00   0.0000000000E+00   7.5569342119E+01   1.4606753735E+02   1.2500000000E+02  1.117E-08  -1.
3000002    2    3    0    0    0  -4.4799579551E+01  -3.4398601512E+01   8.7826429007E+00   5.8029310957E+01   1.0000000000E+01  7.441E-10   1.
3000002    2    3    0    0    0   4.4799579551E+01   3.4398601512E+01   6.6786699218E+01   8.8038226393E+01   1.0000000000E+01  4.754E-10   1.
3000001    1    4    0    0    0  -2.3459498016E+01  -1.7919636485E+01   9.5861369521E+00   3.1054072850E+01   1.0000000000E+00     0.000  -1.
3000022   2   4   0   0   0   -2.1340081534E+01   -1.6478965027E+01   -8.0349405135E-01   2.6975238107E+01   2.5000000000E-01   1.187709E+00   0.
3000001    1    5    0    0    0  -6.5933486787E-02   6.6839479547E-01   1.0558894236E+00   1.6018743091E+00   1.0000000000E+00     0.000   1.
3000022   2   5   0   0   0   4.4865513037E+01   3.3730206716E+01   6.5730809795E+01   8.6436352083E+01   2.5000000000E-01   8.903143E-01   0.
13    1    7    0    0    0  -1.1126916916E+01  -8.6060343896E+00  -3.5244452761E-01   1.4071508452E+01   1.0500000000E-01     0.000  -1.
-13    1    7    0    0    0  -1.0213164618E+01  -7.8729306373E+00  -4.5104952374E-01   1.2903729655E+01   1.0500000000E-01     0.000   1.
13    1    9    0    0    0   2.6062421914E+01   1.9633068845E+01   3.8123337058E+01   5.0180744133E+01   1.0500000000E-01     0.000   1.
-13    1    9    0    0    0   1.8803091123E+01   1.4097137871E+01   2.7607472737E+01   3.6255607951E+01   1.0500000000E-01     0.000  -1.
</event>
<event>
 13   1  9.2978750E-05  1.2500000E+02  7.5467720E-03  1.2380620E-01
   21   -1    0    0  502  501   0.0000000000E+00   0.0000000000E+00   1.2380674152E+01   1.2380674152E+01   0.0000000000E+00     0.000   1.
   21   -1    0    0  501  502   0.0000000000E+00   0.0000000000E+00  -3.1551189797E+02   3.1551189797E+02   0.0000000000E+00     0.000   1.
   25    2    1    2    0    0   0.0000000000E+00   0.0000000000E+00  -3.0313122382E+02   3.2789257212E+02   1.2500000000E+02  7.765E-09  -1.
3000002    2    3    0    0    0  -1.1695912166E+00  -4.6807243158E+01  -4.6183112888E+01   6.6521920234E+01   1.0000000000E+01  1.712E-10   1.
3000002    2    3    0    0    0   1.1695912166E+00   4.6807243158E+01  -2.5694811093E+02   2.6137065189E+02   1.0000000000E+01  7.797E-10   1.
3000001    1    4    0    0    0   3.5300809748E+00  -1.1506150889E+01  -9.2239148372E+00   1.5196499100E+01   1.0000000000E+00     0.000   1.
3000022   2   4   0   0   0   -4.6996721915E+00   -3.5301092269E+01   -3.6959198051E+01   5.1325421135E+01   2.5000000000E-01   2.403786E+00   0.
3000001    1    5    0    0    0   4.4796625820E+00   3.6409023309E+01  -1.8569445516E+02   1.8928580251E+02   1.0000000000E+00     0.000   1.
3000022   2   5   0   0   0   -3.3100713654E+00   1.0398219849E+01   -7.1253655769E+01   7.2084849372E+01   2.5000000000E-01   9.136961E+00   0.
13    1    7    0    0    0  -2.2802656436E+00  -1.6683227757E+01  -1.7427008349E+01   2.4233063050E+01   1.0500000000E-01     0.000   1.
-13    1    7    0    0    0  -2.4194065478E+00  -1.8617864512E+01  -1.9532189702E+01   2.7092358085E+01   1.0500000000E-01     0.000  -1.
13    1    9    0    0    0  -2.5474650943E+00   7.9578503634E+00  -5.4565246550E+01   5.5201395968E+01   1.0500000000E-01     0.000  -1.
-13    1    9    0    0    0  -7.6260627109E-01   2.4403694854E+00  -1.6688409220E+01   1.6883453404E+01   1.0500000000E-01     0.000   1.
</event>
<event>
 13   1  9.2978750E-05  1.2500000E+02  7.5467720E-03  1.2380620E-01
   21   -1    0    0  502  501   0.0000000000E+00   0.0000000000E+00   1.5485289755E+01   1.5485289755E+01   0.0000000000E+00     0.000  -1.
   21   -1    0    0  501  502   0.0000000000E+00   0.0000000000E+00  -2.5225553166E+02   2.5225553166E+02   0.0000000000E+00     0.000  -1.
   25    2    1    2    0    0   0.0000000000E+00   0.0000000000E+00  -2.3677024191E+02   2.6774082141E+02   1.2500000000E+02  1.627E-08  -1.
3000002    2    3    0    0    0  -5.8104330870E+01   5.6571204401E+00  -1.6112359974E+02   1.7166517024E+02   1.0000000000E+01  4.790E-11   1.
3000002    2    3    0    0    0   5.8104330870E+01  -5.6571204401E+00  -7.5646642165E+01   9.6075651174E+01   1.0000000000E+01  3.665E-10   1.
3000001    1    4    0    0    0  -5.7760025508E-01  -8.5601989127E-02  -1.5028233138E+00   1.8972157673E+00   1.0000000000E+00     0.000  -1.
3000022   2   4   0   0   0   -5.7526730615E+01   5.7427224293E+00   -1.5962077643E+02   1.6976795447E+02   2.5000000000E-01   1.363465E+00   0.
3000001    1    5    0    0    0   5.8575301867E+00   1.8826400531E+00  -1.0680425856E+01   1.2366345051E+01   1.0000000000E+00     0.000  -1.
3000022   2   5   0   0   0   5.2246800684E+01   -7.5397604933E+00   -6.4966216309E+01   8.3709306122E+01   2.5000000000E-01   7.642351E+00   0.
13    1    7    0    0    0  -3.7509094482E+01   3.6879597690E+00  -1.0405869927E+02   1.1067410327E+02   1.0500000000E-01     0.000  -1.
-13    1    7    0    0    0  -2.0017636133E+01   2.0547626603E+00  -5.5562077161E+01   5.9093851198E+01   1.0500000000E-01     0.000   1.
13    1    9    0    0    0   3.5482262584E+01  -5.0885191116E+00  -4.4177867986E+01   5.6890939785E+01   1.0500000000E-01     0.000   1.
-13    1    9    0    0    0   1.6764538100E+01  -2.4512413817E+00  -2.0788348322E+01   2.6818366337E+01   1.0500000000E-01     0.000  -1.
</event>
<event>
 13   1  9.2978750E-05  1.2500000E+02  7.5467720E-03  1.2380620E-01
   21   -1    0    0  502  501   0.0000000000E+00   0.0000000000E+00   5.7460802518E+01   5.7460802518E+01   0.0000000000E+00     0.000   1.
   21   -1    0    0  501  502   0.0000000000E+00   0.0000000000E+00  -6.7981125024E+01   6.7981125024E+01   0.0000000000E+00     0.000   1.
   25    2    1    2    0    0   0.0000000000E+00   0.0000000000E+00  -1.0520322506E+01   1.2544192754E+02   1.2500000000E+02  3.416E-08  -1.
3000002    2    3    0    0    0   4.3609314861E+01   4.0957529070E+01   9.8582412289E+00   6.1453042645E+01   1.0000000000E+01  5.880E-10  -1.
3000002    2    3    0    0    0  -4.3609314861E+01  -4.0957529070E+01  -2.0378563735E+01   6.3988884895E+01   1.0000000000E+01  1.370E-10  -1.
3000001    1    4    0    0    0   1.9944772409E+01   1.5806786127E+01  -2.4923314954E-01   2.5469796844E+01   1.0000000000E+00     0.000  -1.
3000022   2   4   0   0   0   2.3664542452E+01   2.5150742943E+01   1.0107474378E+01   3.5983245801E+01   2.5000000000E-01   7.300720E-01   0.
3000001    1    5    0    0    0  -2.5517490132E+01  -2.5723274126E+01  -1.7209114263E+01   4.0124590317E+01   1.0000000000E+00     0.000  -1.
3000022   2   5   0   0   0   -1.8091824729E+01   -1.5234254944E+01   -3.1694494716E+00   2.3864294578E+01   2.5000000000E-01   4.994805E+00   0.
13    1    7    0    0    0   6.5490182683E+00   7.0103263390E+00   2.8271683956E+00   1.0001910907E+01   1.0500000000E-01     0.000  -1.
-13    1    7    0    0    0   1.7115524184E+01   1.8140416604E+01   7.2803059828E+00   2.5981334894E+01   1.0500000000E-01     0.000   1.
13    1    9    0    0    0  -5.4827468791E+00  -4.5919366748E+00  -9.1564098508E-01   7.2108126573E+00   1.0500000000E-01     0.000  -1.
-13    1    9    0    0    0  -1.2609077850E+01  -1.0642318269E+01  -2.2538084865E+00   1.6653481920E+01   1.0500000000E-01     0.000   1.
</event>
<event>
 13   1  9.2978750E-05  1.2500000E+02  7.5467720E-03  1.2380620E-01
   21   -1    0    0  502  501   0.0000000000E+00   0.0000000000E+00   8.6066609252E+01   8.6066609252E+01   0.0000000000E+00     0.000  -1.
   21   -1    0    0  501  502   0.0000000000E+00   0.0000000000E+00  -4.5386358704E+01   4.5386358704E+01   0.0000000000E+00     0.000  -1.
   25    2    1    2    0    0   0.0000000000E+00   0.0000000000E+00   4.0680250548E+01   1.3145296796E+02   1.2500000000E+02  1.637E-08  -1.
3000002    2    3    0    0    0  -8.0492532379E+00  -3.9049850474E+01  -2.9170793007E+01   5.0404528213E+01   1.0000000000E+01  1.330E-11  -1.
3000002    2    3    0    0    0   8.0492532379E+00   3.9049850474E+01   6.9851043555E+01   8.1048439747E+01   1.0000000000E+01  5.716E-11  -1.
3000001    1    4    0    0    0  -6.0208948813E+00  -3.7611656859E+01  -2.9028642076E+01   4.7901461018E+01   1.0000000000E+00     0.000  -1.
3000022   2   4   0   0   0   -2.0283583567E+00   -1.4381936145E+00   -1.4215093101E-01   2.5030671951E+00   2.5000000000E-01   2.015412E+00   0.
3000001    1    5    0    0    0   6.9210010451E+00   1.3817363489E+01   2.1491932554E+01   2.6490053873E+01   1.0000000000E+00     0.000   1.
3000022   2   5   0   0   0   1.1282521928E+00   2.5232486984E+01   4.8359111001E+01   5.4558385874E+01   2.5000000000E-01   9.943384E-01   0.
13    1    7    0    0    0  -5.9111231566E-01  -4.5910946360E-01  -7.5933100163E-02   7.5959601433E-01   1.0500000000E-01     0.000  -1.
-13    1    7    0    0    0  -1.4372460410E+00  -9.7908415088E-01  -6.6217830851E-02   1.7434711807E+00   1.0500000000E-01     0.000   1.
13    1    9    0    0    0   3.2034273491E-01   7.4485997613E+00   1.4183366969E+01   1.6023831672E+01   1.0500000000E-01     0.000   1.
-13    1    9    0    0    0   8.0790945787E-01   1.7783887223E+01   3.4175744032E+01   3.8534554203E+01   1.0500000000E-01     0.000  -1.
</event>
<event>
 13   1  9.2978750E-05  1.2500000E+02  7.5467720E-03  1.2380620E-01
   21   -1    0    0  502  501   0.0000000000E+00   0.0000000000E+00   1.4414438097E+01   1.4414438097E+01   0.0000000000E+00     0.000   1.
   21   -1    0    0  501  502   0.0000000000E+00   0.0000000000E+00  -2.7099564850E+02   2.7099564850E+02   0.0000000000E+00     0.000   1.
   25    2    1    2    0    0   0.0000000000E+00   0.0000000000E+00  -2.5658121040E+02   2.8541008660E+02   1.2500000000E+02  1.213E-07  -1.
3000002    2    3    0    0    0  -1.4667910110E+01  -5.9914456243E+01  -1.2562752569E+02   1.4031095775E+02   1.0000000000E+01  3.312E-10   1.
3000002    2    3    0    0    0   1.4667910110E+01   5.9914456243E+01  -1.3095368471E+02   1.4509912885E+02   1.0000000000E+01  4.340E-10   1.
3000001    1    4    0    0    0  -2.1043090483E+00  -1.5162380290E+01  -2.2987166496E+01   2.7635768781E+01   1.0000000000E+00     0.000  -1.
3000022   2   4   0   0   0   -1.2563601061E+01   -4.4752075953E+01   -1.0264035920E+02   1.1267518897E+02   2.5000000000E-01   4.124007E+00   0.
3000001    1    5    0    0    0   4.8121119491E+00   3.9358068512E+01  -8.5194863202E+01   9.3975415372E+01   1.0000000000E+00     0.000   1.
3000022   2   5   0   0   0   9.8557981605E+00   2.0556387730E+01   -4.5758821505E+01   5.1123713474E+01   2.5000000000E-01   3.231752E+00   0.
13    1    7    0    0    0  -5.1656732300E+00  -1.8633535216E+01  -4.2664714521E+01   4.6842093300E+01   1.0500000000E-01     0.000  -1.
-13    1    7    0    0    0  -7.3979278314E+00  -2.6118540737E+01  -5.9975644677E+01   6.5833095672E+01   1.0500000000E-01     0.000   1.
13    1    9    0    0    0   4.4378499761E+00   9.4032190600E+00  -2.0824036785E+01   2.3275879664E+01   1.0500000000E-01     0.000  -1.
-13    1    9    0    0    0   5.4179481843E+00   1.1153168670E+01  -2.4934784720E+01   2.7847833811E+01   1.0500000000E-01     0.000   1.
</event>
<event>
 13   1  9.2978750E-05  1.2500000E+02  7.5467720E-03  1.2380620E-01
   21   -1    0    0  502  501   0.0000000000E+00   0.0000000000E+00   1.6698022533E+02   1.6698022533E+02   0.0000000000E+00     0.000  -1.
   21   -1    0    0  501  502   0.0000000000E+00   0.0000000000E+00  -2.3393488613E+01   2.3393488613E+01   0.0000000000E+00     0.000  -1.
   25    2    1    2    0    0   0.0000000000E+00   0.0000000000E+00   1.4358673672E+02   1.9037371395E+02   1.2500000000E+02  2.142E-08  -1.
3000002    2    3    0    0    0   3.8799861203E+01  -2.4701086968E+01   1.3441542133E+02   1.4241867300E+02   1.0000000000E+01  7.719E-10   1.
3000002    2    3    0    0    0  -3.8799861203E+01   2.4701086968E+01   9.1713153880E+00   4.7955040952E+01   1.0000000000E+01  3.152E-10   1.
3000001    1    4    0    0    0   1.6807534392E+01  -6.5371006668E+00   4.2496578625E+01   4.6175600617E+01   1.0000000000E+00     0.000  -1.
3000022   2   4   0   0   0   2.1992326811E+01   -1.8163986301E+01   9.1918842707E+01   9.6243072382E+01   2.5000000000E-01   1.407230E+00   0.
3000001    1    5    0    0    0  -7.7598350564E+00   8.2730505624E+00  -8.9170173659E-01   1.1421625878E+01   1.0000000000E+00     0.000   1.
3000022   2   5   0   0   0   -3.1040026146E+01   1.6428036405E+01   1.0063017125E+01   3.6533415074E+01   2.5000000000E-01   9.081557E-01   0.
13    1    7    0    0    0   8.9117346534E+00  -7.4307557247E+00   3.7279686568E+01   3.9043836912E+01   1.0500000000E-01     0.000  -1.
-13    1    7    0    0    0   1.3080592157E+01  -1.0733230576E+01   5.4639156139E+01   5.7199235470E+01   1.0500000000E-01     0.000   1.
13    1    9    0    0    0  -1.3368973090E+01   7.0880008536E+00   4.2685936511E+00   1.5722630643E+01   1.0500000000E-01     0.000   1.
-13    1    9    0    0    0  -1.7671053057E+01   9.3400355517E+00   5.7944234735E+00   2.0810784431E+01   1.0500000000E-01     0.000  -1.
</event>
<event>
 13   1  9.2978750E-05  1.2500000E+02  7.5467720E-03  1.2380620E-01
   21   -1    0    0  502  501   0.0000000000E+00   0.0000000000E+00   3.3284879103E+02   3.3284879103E+02   0.0000000000E+00     0.000  -1.
   21   -1    0    0  501  502   0.0000000000E+00   0.0000000000E+00  -1.1735809488E+01   1.1735809488E+01   0.0000000000E+00     0.000  -1.
   25    2    1    2    0    0   0.0000000000E+00   0.0000000000E+00   3.2111298154E+02   3.4458460052E+02   1.2500000000E+02  5.522E-09  -1.
3000002    2    3    0    0    0   2.3359010369E+01  -4.1190456622E+01   2.6957435997E+02   2.7388434171E+02   1.0000000000E+01  1.093E-09   1.
3000002    2    3    0    0    0  -2.3359010369E+01   4.1190456622E+01   5.1538621572E+01   7.0700258809E+01   1.0000000000E+01  2.433E-10   1.
3000001    1    4    0    0    0   1.2884965276E+01  -3.1807371323E+01   1.9151097012E+02   1.9456408425E+02   1.0000000000E+00     0.000   1.
3000022   2   4   0   0   0   1.0474045093E+01   -9.3830852992E+00   7.8063389845E+01   7.9320257466E+01   2.5000000000E-01   2.685829E+00   0.
3000001    1    5    0    0    0  -4.1972288423E+00   2.9025023765E+00   3.1120601313E+00   6.0602118991E+00   1.0000000000E+00     0.000   1.
3000022   2   5   0   0   0   -1.9161781527E+01   3.8287954245E+01   4.8426561440E+01   6.4640046910E+01   2.5000000000E-01   2.232563E+01   0.
13    1    7    0    0    0   2.5459117368E+00  -2.3113846617E+00   1.9099656423E+01   1.9407010746E+01   1.0500000000E-01     0.000  -1.
-13    1    7    0    0    0   7.9281333559E+00  -7.0717006375E+00   5.8963733422E+01   5.9913246719E+01   1.0500000000E-01     0.000   1.
13    1    9    0    0    0  -5.2773261239E+00   1.0623622681E+01   1.3393260661E+01   1.7891394189E+01   1.0500000000E-01     0.000  -1.
-13    1    9    0    0    0  -1.3884455403E+01   2.7664331565E+01   3.5033300779E+01   4.6748652721E+01   1.0500000000E-01     0.000   1.
</event>
<event>
 13   1  9.2978750E-05  1.2500000E+02  7.5467720E-03  1.2380620E-01
   21   -1    0    0  502  501   0.0000000000E+00   0.0000000000E+00   7.2225973585E+01   7.2225973585E+01   0.0000000000E+00     0.000   1.
   21   -1    0    0  501  502   0.0000000000E+00   0.0000000000E+00  -5.4083729248E+01   5.4083729248E+01   0.0000000000E+00     0.000   1.
   25    2    1    2    0    0   0.0000000000E+00   0.0000000000E+00   1.8142244337E+01   1.2630970283E+02   1.2500000000E+02  1.359E-08  -1.
3000002    2    3    0    0    0   2.7000236778E+01   4.3546334348E+01  -2.5653952415E+01   5.8167184010E+01   1.0000000000E+01  4.676E-10   1.
3000002    2    3    0    0    0  -2.7000236778E+01  -4.3546334348E+01   4.3796196752E+01   6.8142518820E+01   1.0000000000E+01  2.939E-10   1.
3000001    1    4    0    0    0   1.0647998142E+01   2.3112125301E+01  -8.3886947229E+00   2.6812691016E+01   1.0000000000E+00     0.000  -1.
3000022   2   4   0   0   0   1.6352238635E+01   2.0434209047E+01   -1.7265257692E+01   3.1354492994E+01   2.5000000000E-01   4.105610E+00   0.
3000001    1    5    0    0    0  -1.3950897625E+01  -1.6010178839E+01   2.2569868746E+01   3.1005682483E+01   1.0000000000E+00     0.000  -1.
3000022   2   5   0   0   0   -1.3049339153E+01   -2.7536155509E+01   2.1226328005E+01   3.7136836337E+01   2.5000000000E-01   7.958840E+00   0.
13    1    7    0    0    0   6.3048714239E+00   7.7996563630E+00  -6.5730584687E+00   1.1991754070E+01   1.0500000000E-01     0.000   1.
-13    1    7    0    0    0   1.0047367211E+01   1.2634552684E+01  -1.0692199223E+01   1.9362738923E+01   1.0500000000E-01     0.000  -1.
13    1    9    0    0    0  -9.6835812392E+00  -2.0485925261E+01   1.5759737897E+01   2.7601181913E+01   1.0500000000E-01     0.000   1.
-13    1    9    0    0    0  -3.3657579135E+00  -7.0502302478E+00   5.4665901088E+00   9.5356544242E+00   1.0500000000E-01     0.000  -1.
</event>
<event>
 13   1  9.2978750E-05  1.2500000E+02  7.5467720E-03  1.2380620E-01
   21   -1    0    0  502  501   0.0000000000E+00   0.0000000000E+00   3.2538400494E+01   3.2538400494E+01   0.0000000000E+00     0.000  -1.
   21   -1    0    0  501  502   0.0000000000E+00   0.0000000000E+00  -1.2005046163E+02   1.2005046163E+02   0.0000000000E+00     0.000  -1.
   25    2    1    2    0    0   0.0000000000E+00   0.0000000000E+00  -8.7512061137E+01   1.5258886212E+02   1.2500000000E+02  5.778E-08  -1.
3000002    2    3    0    0    0   5.6201732673E+01   2.9625290222E+00  -7.4609813411E+01   9.3989550434E+01   1.0000000000E+01  2.747E-10   1.
3000002    2    3    0    0    0  -5.6201732673E+01  -2.9625290222E+00  -1.2902247726E+01   5.8599311686E+01   1.0000000000E+01  2.405E-10   1.
3000001    1    4    0    0    0   3.3429858485E+01   3.3127988635E+00  -5.1860011288E+01   6.1797984153E+01   1.0000000000E+00     0.000   1.
3000022   2   4   0   0   0   2.2771874188E+01   -3.5026984131E-01   -2.2749802123E+01   3.2191566281E+01   2.5000000000E-01   7.399429E+00   0.
3000001    1    5    0    0    0  -2.8918262010E+00   3.0401826305E-01  -2.9663618298E+00   4.2725154636E+00   1.0000000000E+00     0.000  -1.
3000022   2   5   0   0   0   -5.3309906472E+01   -3.2665472852E+00   -9.9358858964E+00   5.4326796222E+01   2.5000000000E-01   5.087371E+00   0.
13    1    7    0    0    0   1.3712064515E+01  -1.9043253007E-01  -1.3614219282E+01   1.9323948082E+01   1.0500000000E-01     0.000  -1.
-13    1    7    0    0    0   9.0598096726E+00  -1.5983731124E-01  -9.1355828408E+00   1.2867618199E+01   1.0500000000E-01     0.000   1.
13    1    9    0    0    0  -3.4363098635E+01  -2.0527542251E+00  -6.4270020904E+00   3.5019333640E+01   1.0500000000E-01     0.000   1.
-13    1    9    0    0    0  -1.8946807837E+01  -1.2137930601E+00  -3.5088838059E+00   1.9307462582E+01   1.0500000000E-01     0.000  -1.
</event>
<event>
 13   1  9.2978750E-05  1.2500000E+02  7.5467720E-03  1.2380620E-01
   21   -1    0    0  502  501   0.0000000000E+00   0.0000000000E+00   3.2107272038E+01   3.2107272038E+01   0.0000000000E+00     0.000   1.
   21   -1    0    0  501  502   0.0000000000E+00   0.0000000000E+00  -1.2166246934E+02   1.2166246934E+02   0.0000000000E+00     0.000   1.
   25    2    1    2    0    0   0.0000000000E+00   0.0000000000E+00  -8.9555197306E+01   1.5376974138E+02   1.2500000000E+02  6.151E-08  -1.
3000002    2    3    0    0    0  -1.2351466257E+01   6.0445646849E+01  -4.4928553946E+01   7.6972786758E+01   1.0000000000E+01  5.631E-10  -1.
3000002    2    3    0    0    0   1.2351466257E+01  -6.0445646849E+01  -4.4626643360E+01   7.6796954622E+01   1.0000000000E+01  2.814E-10  -1.
3000001    1    4    0    0    0  -3.4035088148E+00   3.4747153414E+01  -2.9310248638E+01   4.5596482516E+01   1.0000000000E+00     0.000  -1.
3000022   2   4   0   0   0   -8.9479574417E+00   2.5698493435E+01   -1.5618305308E+01   3.1376304242E+01   2.5000000000E-01   8.419812E-02   0.
3000001    1    5    0    0    0   7.0107336950E+00  -4.2755182921E+01  -2.5902577294E+01   5.0488608260E+01   1.0000000000E+00     0.000  -1.
3000022   2   5   0   0   0   5.3407325616E+00   -1.7690463928E+01   -1.8724066066E+01   2.6308346362E+01   2.5000000000E-01   7.315141E+00   0.
13    1    7    0    0    0  -5.9380881036E+00   1.7048414613E+01  -1.0423749224E+01   2.0846460228E+01   1.0500000000E-01     0.000  -1.
-13    1    7    0    0    0  -3.0098693381E+00   8.6500788214E+00  -5.1945560838E+00   1.0529844014E+01   1.0500000000E-01     0.000   1.
13    1    9    0    0    0   2.4920289506E+00  -8.3950775732E+00  -8.9499926508E+00   1.2522017777E+01   1.0500000000E-01     0.000   1.
-13    1    9    0    0    0   2.8487036110E+00  -9.2953863546E+00  -9.7740734151E+00   1.3786328586E+01   1.0500000000E-01     0.000  -1.
</event>
<event>
 13   1  9.2978750E-05  1.2500000E+02  7.5467720E-03  1.2380620E-01
   21   -1    0    0  502  501   0.0000000000E+00   0.0000000000E+00   9.1026780163E+02   9.1026780163E+02   0.0000000000E+00     0.000  -1.
   21   -1    0    0  501  502   0.0000000000E+00   0.0000000000E+00  -4.2913195358E+00   4.2913195358E+00   0.0000000000E+00     0.000  -1.
   25    2    1    2    0    0   0.0000000000E+00   0.0000000000E+00   9.0597648210E+02   9.1455912117E+02   1.2500000000E+02  3.964E-08  -1.
3000002    2    3    0    0    0   3.6767348656E+01   2.3159372003E+01   1.3255883549E+02   1.3985721042E+02   1.0000000000E+01  6.122E-10  -1.
3000002    2    3    0    0    0  -3.6767348656E+01  -2.3159372003E+01   7.7341764661E+02   7.7470191075E+02   1.0000000000E+01  1.301E-10  -1.
3000001    1    4    0    0    0   1.2298695202E+01   3.7871456167E+00   3.0109417026E+01   3.2759385971E+01   1.0000000000E+00     0.000   1.
3000022   2   4   0   0   0   2.4468653455E+01   1.9372226387E+01   1.0244941847E+02   1.0709782445E+02   2.5000000000E-01   7.461034E-01   0.
3000001    1    5    0    0    0  -1.2633892139E+01  -3.0049022626E+00   2.0143459336E+02   2.0185524534E+02   1.0000000000E+00     0.000   1.
3000022   2   5   0   0   0   -2.4133456517E+01   -2.0154469741E+01   5.7198305324E+02   5.7284666541E+02   2.5000000000E-01   1.675519E+00   0.
13    1    7    0    0    0   8.0817250314E+00   6.4646549973E+00   3.4013387932E+01   3.5553166207E+01   1.0500000000E-01     0.000   1.
-13    1    7    0    0    0   1.6386928423E+01   1.2907571389E+01   6.8436030536E+01   7.1544658241E+01   1.0500000000E-01     0.000  -1.
13    1    9    0    0    0  -1.1904810266E+01  -9.8604116364E+00   2.8167525728E+02   2.8209912055E+02   1.0500000000E-01     0.000   1.
-13    1    9    0    0    0  -1.2228646251E+01  -1.0294058104E+01   2.9030779596E+02   2.9074754486E+02   1.0500000000E-01     0.000  -1.
</event>
<event>
 13   1  9.2978750E-05  1.2500000E+02  7.5467720E-03  1.2380620E-01
   21   -1    0    0  502  501   0.0000000000E+00   0.0000000000E+00   2.6437431144E+02   2.6437431144E+02   0.0000000000E+00     0.000  -1.
   21   -1    0    0  501  502   0.0000000000E+00   0.0000000000E+00  -1.4775452194E+01   1.4775452194E+01   0.0000000000E+00     0.000  -1.
   25    2    1    2    0    0   0.0000000000E+00   0.0000000000E+00   2.4959885925E+02   2.7914976363E+02   1.2500000000E+02  1.090E-08  -1.
3000002    2    3    0    0    0   1.5231673990E+01  -5.0328935340E+01   5.2737881926E+01   7.5141798055E+01   1.0000000000E+01  9.475E-12   1.
3000002    2    3    0    0    0  -1.5231673990E+01   5.0328935340E+01   1.9686097732E+02   2.0400796557E+02   1.0000000000E+01  7.114E-11   1.
3000001    1    4    0    0    0   1.4235499995E+00  -8.3877916214E-01   8.2217788504E-01   2.0990525383E+00   1.0000000000E+00     0.000  -1.
3000022   2   4   0   0   0   1.3808123990E+01   -4.9490156177E+01   5.1915704041E+01   7.3042745517E+01   2.5000000000E-01   5.426642E+00   0.
3000001    1    5    0    0    0  -6.5926320489E+00   8.8636622583E+00   3.6563994018E+01   3.8209330856E+01   1.0000000000E+00     0.000   1.
3000022   2   5   0   0   0   -8.6390419410E+00   4.1465273081E+01   1.6029698331E+02   1.6579863472E+02   2.5000000000E-01   2.838106E+00   0.
13    1    7    0    0    0   5.5330776729E+00  -2.0003848810E+01   2.0909776051E+01   2.9461817243E+01   1.0500000000E-01     0.000   1.
-13    1    7    0    0    0   8.2750463175E+00  -2.9486307367E+01   3.1005927990E+01   4.3580928274E+01   1.0500000000E-01     0.000  -1.
13    1    9    0    0    0  -5.4576204199E+00   2.5984714277E+01   1.0064895168E+02   1.0409233159E+02   1.0500000000E-01     0.000   1.
-13    1    9    0    0    0  -3.1814215212E+00   1.5480558804E+01   5.9648031629E+01   6.1706303130E+01   1.0500000000E-01     0.000  -1.
</event>
<event>
 13   1  9.2978750E-05  1.2500000E+02  7.5467720E-03  1.2380620E-01
   21   -1    0    0  502  501   0.0000000000E+00   0.0000000000E+00   2.8711966091E+01   2.8711966091E+01   0.0000000000E+00     0.000   1.
   21   -1    0    0  501  502   0.0000000000E+00   0.0000000000E+00  -1.3604954769E+02   1.3604954769E+02   0.0000000000E+00     0.000   1.
   25    2    1    2    0    0   0.0000000000E+00   0.0000000000E+00  -1.0733758160E+02   1.6476151378E+02   1.2500000000E+02  4.061E-08  -1.
3000002    2    3    0    0    0  -2.2098471143E+01  -5.7534419310E+01  -5.0011668837E+01   7.9998242806E+01   1.0000000000E+01  6.503E-10   1.
3000002    2    3    0    0    0   2.2098471143E+01   5.7534419310E+01  -5.7325912763E+01   8.4763270974E+01   1.0000000000E+01  9.392E-10   1.
3000001    1    4    0    0    0  -7.4833499253E+00  -2.5530076284E+01  -2.7230227768E+01   3.8082418850E+01   1.0000000000E+00     0.000   1.
3000022   2   4   0   0   0   -1.4615121218E+01   -3.2004343026E+01   -2.2781441069E+01   4.1915823956E+01   2.5000000000E-01   7.712482E+00   0.
3000001    1    5    0    0    0   6.3737930859E+00   1.0486199243E+01  -7.3099983762E+00   1.4318578460E+01   1.0000000000E+00     0.000   1.
3000022   2   5   0   0   0   1.5724678057E+01   4.7048220067E+01   -5.0015914387E+01   7.0444692514E+01   2.5000000000E-01   2.172374E+01   0.
13    1    7    0    0    0  -1.0174915933E+01  -2.2292731552E+01  -1.5811421060E+01   2.9163450674E+01   1.0500000000E-01     0.000   1.
-13    1    7    0    0    0  -4.4402052848E+00  -9.7116114731E+00  -6.9700200089E+00   1.2752373281E+01   1.0500000000E-01     0.000  -1.
13    1    9    0    0    0   1.1715456136E+01   3.5005455213E+01  -3.7254490893E+01   5.2445609195E+01   1.0500000000E-01     0.000   1.
-13    1    9    0    0    0   4.0092219209E+00   1.2042764854E+01  -1.2761423494E+01   1.7999083319E+01   1.0500000000E-01     0.000  -1.
</event>
<event>
 13   1  9.2978750E-05  1.2500000E+02  7.5467720E-03  1.2380620E-01
   21   -1    0    0  502  501   0.0000000000E+00   0.0000000000E+00   6.6815583139E+02   6.6815583139E+02   0.0000000000E+00     0.000   1.
   21   -1    0    0  501  502   0.0000000000E+00   0.0000000000E+00  -5.8463158091E+00   5.8463158091E+00   0.0000000000E+00     0.000   1.
   25    2    1    2    0    0   0.0000000000E+00   0.0000000000E+00   6.6230951558E+02   6.7400214720E+02   1.2500000000E+02  6.433E-09  -1.
3000002    2    3    0    0    0   2.9110301176E+01   4.9709183243E+01   2.1206104268E+02   2.1997340374E+02   1.0000000000E+01  1.101E-11  -1.
3000002    2    3    0    0    0  -2.9110301176E+01  -4.9709183243E+01   4.5024847290E+02   4.5402874346E+02   1.0000000000E+01  3.570E-10  -1.
3000001    1    4    0    0    0   4.4375448337E+00   1.4070402868E+01   4.4302871813E+01   4.6705593796E+01   1.0000000000E+00     0.000   1.
3000022   2   4   0   0   0   2.4672756342E+01   3.5638780375E+01   1.6775817087E+02   1.7326780995E+02   2.5000000000E-01   3.504908E+00   0.
3000001    1    5    0    0    0  -7.2954361630E+00  -1.7789616355E+01   1.8042410917E+02   1.8144848583E+02   1.0000000000E+00     0.000   1.
3000022   2   5   0   0   0   -2.1814865013E+01   -3.1919566888E+01   2.6982436373E+02   2.7258025763E+02   2.5000000000E-01   7.498683E+00   0.
13    1    7    0    0    0   1.2263029612E+01   1.7726423860E+01   8.3152211793E+01   8.5900578282E+01   1.0500000000E-01     0.000   1.
-13    1    7    0    0    0   1.2409726730E+01   1.7912356515E+01   8.4605959072E+01   8.7367231666E+01   1.0500000000E-01     0.000  -1.
13    1    9    0    0    0  -7.5054088642E+00  -1.0934422772E+01   9.2902299078E+01   9.3844237770E+01   1.0500000000E-01     0.000   1.
-13    1    9    0    0    0  -1.4309456149E+01  -2.0985144116E+01   1.7692206465E+02   1.7873601986E+02   1.0500000000E-01     0.000  -1.
</event>
<event>
 13   1  9.2978750E-05  1.2500000E+02  7.5467720E-03  1.2380620E-01
   21   -1    0    0  502  501   0.0000000000E+00   0.0000000000E+00   3.0888153746E+01   3.0888153746E+01   0.0000000000E+00     0.000  -1.
   21   -1    0    0  501  502   0.0000000000E+00   0.0000000000E+00  -1.2646434074E+02   1.2646434074E+02   0.0000000000E+00     0.000  -1.
   25    2    1    2    0    0   0.0000000000E+00   0.0000000000E+00  -9.5576186991E+01   1.5735249448E+02   1.2500000000E+02  1.169E-08  -1.
3000002    2    3    0    0    0   5.4990498757E+01  -1.8055082738E-01  -1.2580214709E+01   5.7290918602E+01   1.0000000000E+01  1.858E-10  -1.
3000002    2    3    0    0    0  -5.4990498757E+01   1.8055082738E-01  -8.2995972282E+01   1.0006157588E+02   1.0000000000E+01  1.194E-09  -1.
3000001    1    4    0    0    0   5.1915378249E+01  -2.4292486988E+00  -1.2539735075E+01   5.3472915609E+01   1.0000000000E+00     0.000  -1.
3000022   2   4   0   0   0   3.0751205084E+00   2.2486978714E+00   -4.0479634646E-02   3.8180029936E+00   2.5000000000E-01   2.646792E+00   0.
3000001    1    5    0    0    0  -4.4221778379E+01  -3.7516618446E+00  -6.4522223182E+01   7.8318311613E+01   1.0000000000E+00     0.000  -1.
3000022   2   5   0   0   0   -1.0768720378E+01   3.9322126720E+00   -1.8473749099E+01   2.1743264264E+01   2.5000000000E-01   1.109021E+01   0.
13    1    7    0    0    0   7.1043393973E-01   5.2306879932E-01  -1.9808998494E-02   8.8867021328E-01   1.0500000000E-01     0.000  -1.
-13    1    7    0    0    0   2.3646865686E+00   1.7256290721E+00  -2.0670636153E-02   2.9293327803E+00   1.0500000000E-01     0.000   1.
13    1    9    0    0    0  -6.8976421718E+00   2.5614853856E+00  -1.1934129939E+01   1.4020454961E+01   1.0500000000E-01     0.000   1.
-13    1    9    0    0    0  -3.8710782064E+00   1.3707272863E+00  -6.5396191607E+00   7.7228093037E+00   1.0500000000E-01     0.000  -1.
</event>
<event>
 13   1  9.2978750E-05  1.2500000E+02  7.5467720E-03  1.2380620E-01
   21   -1    0    0  502  501   0.0000000000E+00   0.0000000000E+00   1.5561620311E+01   1.5561620311E+01   0.0000000000E+00     0.000  -1.
   21   -1    0    0  501  502   0.0000000000E+00   0.0000000000E+00  -2.5101820517E+02   2.5101820517E+02   0.0000000000E+00     0.000  -1.
   25    2    1    2    0    0   0.0000000000E+00   0.0000000000E+00  -2.3545658486E+02   2.6657982548E+02   1.2500000000E+02  1.394E-08  -1.
3000002    2    3    0    0    0  -2.5343764817E+01   4.1418004359E+01  -1.9889452566E+02   2.0497997424E+02   1.0000000000E+01  3.641E-10  -1.
3000002    2    3    0    0    0   2.5343764817E+01  -4.1418004359E+01  -3.6562059196E+01   6.1599851240E+01   1.0000000000E+01  5.374E-10  -1.
3000001    1    4    0    0    0  -1.8091496798E+01   2.1173144778E+01  -1.0298876774E+02   1.0669250487E+02   1.0000000000E+00     0.000  -1.
3000022   2   4   0   0   0   -7.2522680196E+00   2.0244859581E+01   -9.5905757927E+01   9.8287469366E+01   2.5000000000E-01   1.187957E+00   0.
3000001    1    5    0    0    0   2.0483345997E+01  -2.7872967214E+01  -2.9930786648E+01   4.5752833288E+01   1.0000000000E+00     0.000  -1.
3000022   2   5   0   0   0   4.8604188198E+00   -1.3545037145E+01   -6.6312725483E+00   1.5847017952E+01   2.5000000000E-01   6.228822E-02   0.
13    1    7    0    0    0  -3.0530708704E+00   8.6527933189E+00  -4.0700594739E+01   4.1722194466E+01   1.0500000000E-01     0.000   1.
-13    1    7    0    0    0  -4.1991971492E+00   1.1592066262E+01  -5.5205163187E+01   5.6565274900E+01   1.0500000000E-01     0.000  -1.
13    1    9    0    0    0   2.6574438797E+00  -7.2716558840E+00  -3.6220002037E+00   8.5480347300E+00   1.0500000000E-01     0.000  -1.
-13    1    9    0    0    0   2.2029749401E+00  -6.2733812609E+00  -3.0092723446E+00   7.2989832220E+00   1.0500000000E-01     0.000   1.
</event>
<event>
 13   1  9.2978750E-05  1.2500000E+02  7.5467720E-03  1.2380620E-01
   21   -1    0    0  502  501   0.0000000000E+00   0.0000000000E+00   1.6327535025E+01   1.6327535025E+01   0.0000000000E+00     0.000   1.
   21   -1    0    0  501  502   0.0000000000E+00   0.0000000000E+00  -2.3924309419E+02   2.3924309419E+02   0.0000000000E+00     0.000   1.
   25    2    1    2    0    0   0.0000000000E+00   0.0000000000E+00  -2.2291555917E+02   2.5557062922E+02   1.2500000000E+02  6.685E-09  -1.
3000002    2    3    0    0    0  -3.3204040194E+01  -8.4197616960E+00  -6.5484933534E+00   3.6280620687E+01   1.0000000000E+01  5.526E-10   1.
3000002    2    3    0    0    0   3.3204040194E+01   8.4197616960E+00  -2.1636706582E+02   2.1929000853E+02   1.0000000000E+01  5.132E-10   1.
3000001    1    4    0    0    0  -2.8842261423E+01  -8.0219822271E+00  -2.0913866055E+00   3.0026690474E+01   1.0000000000E+00     0.000   1.
3000022   2   4   0   0   0   -4.3617787709E+00   -3.9777946893E-01   -4.4571067480E+00   6.2539302135E+00   2.5000000000E-01   3.505769E+00   0.
3000001    1    5    0    0    0   3.7996063862E+00   2.6915106222E+00  -1.5936742972E+01   1.6633130032E+01   1.0000000000E+00     0.000  -1.
3000022   2   5   0   0   0   2.9404433808E+01   5.7282510738E+00   -2.0043032284E+02   2.0265687850E+02   2.5000000000E-01   1.159878E+01   0.
13    1    7    0    0    0  -2.5725140876E+00  -1.7041849068E-01  -2.6141583303E+00   3.6731076718E+00   1.0500000000E-01     0.000  -1.
-13    1    7    0    0    0  -1.7892646834E+00  -2.2736097825E-01  -1.8429484176E+00   2.5808225417E+00   1.0500000000E-01     0.000   1.
13    1    9    0    0    0   2.1842294051E+01   4.2248349668E+00  -1.4888485656E+02   1.5053785762E+02   1.0500000000E-01     0.000  -1.
-13    1    9    0    0    0   7.5621397568E+00   1.5034161070E+00  -5.1545466284E+01   5.2119020876E+01   1.0500000000E-01     0.000   1.
</event>
<event>
 13   1  9.2978750E-05  1.2500000E+02  7.5467720E-03  1.2380620E-01
   21   -1    0    0  502  501   0.0000000000E+00   0.0000000000E+00   2.1302040602E+01   2.1302040602E+01   0.0000000000E+00     0.000  -1.
   21   -1    0    0  501  502   0.0000000000E+00   0.0000000000E+00  -1.8337445097E+02   1.8337445097E+02   0.0000000000E+00     0.000  -1.
   25    2    1    2    0    0   0.0000000000E+00   0.0000000000E+00  -1.6207241037E+02   2.0467649157E+02   1.2500000000E+02  5.206E-08  -1.
3000002    2    3    0    0    0   4.1147891426E+00   2.8504333376E+01  -1.7037381872E+02   1.7307994284E+02   1.0000000000E+01  1.917E-10   1.
3000002    2    3    0    0    0  -4.1147891426E+00  -2.8504333376E+01   8.3014083460E+00   3.1596548726E+01   1.0000000000E+01  8.928E-10   1.
3000001    1    4    0    0    0   2.6498236600E+00   2.1696895257E+00  -1.1805797655E+01   1.2333125165E+01   1.0000000000E+00     0.000  -1.
3000022   2   4   0   0   0   1.4649654826E+00   2.6334643850E+01   -1.5856802106E+02   1.6074681768E+02   2.5000000000E-01   8.674783E+00   0.
3000001    1    5    0    0    0  -5.6434043340E+00  -7.7712849869E+00   3.3857849317E+00   1.0232517893E+01   1.0000000000E+00     0.000   1.
3000022   2   5   0   0   0   1.5286151914E+00   -2.0733048389E+01   4.9156234143E+00   2.1364030833E+01   2.5000000000E-01   2.901142E+00   0.
13    1    7    0    0    0   8.1532361533E-01   1.5346190611E+01  -9.2072585528E+01   9.3346356917E+01   1.0500000000E-01     0.000  -1.
-13    1    7    0    0    0   6.4964186729E-01   1.0988453239E+01  -6.6495435534E+01   6.7400460762E+01   1.0500000000E-01     0.000   1.
13    1    9    0    0    0   5.1066471691E-01  -6.3951860904E+00   1.4882599145E+00   6.5867386586E+00   1.0500000000E-01     0.000  -1.
-13    1    9    0    0    0   1.0179504745E+00  -1.4337862299E+01   3.4273634998E+00   1.4777292175E+01   1.0500000000E-01     0.000   1.
</event>
<event>
 13   1  9.2978750E-05  1.2500000E+02  7.5467720E-03  1.2380620E-01
   21   -1    0    0  502  501   0.0000000000E+00   0.0000000000E+00   5.1846821985E+01   5.1846821985E+01   0.0000000000E+00     0.000  -1.
   21   -1    0    0  501  502   0.0000000000E+00   0.0000000000E+00  -7.5342129960E+01   7.5342129960E+01   0.0000000000E+00     0.000  -1.
   25    2    1    2    0    0   0.0000000000E+00   0.0000000000E+00  -2.3495307975E+01   1.2718895194E+02   1.2500000000E+02  8.383E-08  -1.
3000002    2    3    0    0    0  -5.8113707214E+01   1.3335317851E+01  -2.7875015092E+01   6.6573644445E+01   1.0000000000E+01  8.414E-10   1.
3000002    2    3    0    0    0   5.8113707214E+01  -1.3335317851E+01   4.3797071166E+00   6.0615307495E+01   1.0000000000E+01  5.423E-11   1.
3000001    1    4    0    0    0  -1.0886943094E+01   5.6178016814E-01  -8.8624007984E+00   1.4084859772E+01   1.0000000000E+00     0.000  -1.
3000022   2   4   0   0   0   -4.7226764120E+01   1.2773537682E+01   -1.9012614293E+01   5.2488784673E+01   2.5000000000E-01   1.201623E+00   0.
3000001    1    5    0    0    0   9.9916505043E+00  -6.1255910455E+00   1.6663491953E+00   1.1879926982E+01   1.0000000000E+00     0.000  -1.
3000022   2   5   0   0   0   4.8122056709E+01   -7.2097268051E+00   2.7133579213E+00   4.8735380513E+01   2.5000000000E-01   2.044021E+00   0.
13    1    7    0    0    0  -2.2138790900E+01   6.0275416709E+00  -8.9762199241E+00   2.4638199411E+01   1.0500000000E-01     0.000   1.
-13    1    7    0    0    0  -2.5087973220E+01   6.7459960116E+00  -1.0036394369E+01   2.7850585261E+01   1.0500000000E-01     0.000  -1.
13    1    9    0    0    0   1.4539433000E+01  -2.1564382008E+00   7.7854802433E-01   1.4719459899E+01   1.0500000000E-01     0.000   1.
-13    1    9    0    0    0   3.3582623709E+01  -5.0532886043E+00   1.9348098969E+00   3.4015920614E+01   1.0500000000E-01     0.000  -1.
</event>
<event>
 13   1  9.2978750E-05  1.2500000E+02  7.5467720E-03  1.2380620E-01
   21   -1    0    0  502  501   0.0000000000E+00   0.0000000000E+00   8.7191766147E+01   8.7191766147E+01   0.0000000000E+00     0.000  -1.
   21   -1    0    0  501  502   0.0000000000E+00   0.0000000000E+00  -4.4800675254E+01   4.4800675254E+01   0.0000000000E+00     0.000  -1.
   25    2    1    2    0    0   0.0000000000E+00   0.0000000000E+00   4.2391090893E+01   1.3199244140E+02   1.2500000000E+02  6.963E-08  -1.
3000002    2    3    0    0    0   2.5417317786E+01   1.2976642683E+01  -3.6561708943E+01   4.7446726543E+01   1.0000000000E+01  9.101E-11   1.
3000002    2    3    0    0    0  -2.5417317786E+01  -1.2976642683E+01   7.8952799836E+01   8.4545714857E+01   1.0000000000E+01  1.330E-09   1.
3000001    1    4    0    0    0   2.1049234463E+01   9.4241090514E+00  -2.2234376644E+01   3.2050766101E+01   1.0000000000E+00     0.000   1.
3000022   2   4   0   0   0   4.3680833232E+00   3.5525336314E+00   -1.4327332299E+01   1.5395960442E+01   2.5000000000E-01   6.383047E+00   0.
3000001    1    5    0    0    0  -9.5387207659E+00  -9.5426306729E+00   2.8647658798E+01   3.1681814162E+01   1.0000000000E+00     0.000  -1.
3000022   2   5   0   0   0   -1.5878597020E+01   -3.4340120099E+00   5.0305141038E+01   5.2863900695E+01   2.5000000000E-01   6.979875E+00   0.
13    1    7    0    0    0   1.4782468229E+00   1.2168697586E+00  -5.0231324200E+00   5.3766969403E+00   1.0500000000E-01     0.000  -1.
-13    1    7    0    0    0   2.8898365003E+00   2.3356638728E+00  -9.3041998790E+00   1.0019263502E+01   1.0500000000E-01     0.000   1.
13    1    9    0    0    0  -7.6464887130E+00  -1.5845262298E+00   2.4189044943E+01   2.5418505725E+01   1.0500000000E-01     0.000   1.
-13    1    9    0    0    0  -8.2321083071E+00  -1.8494857800E+00   2.6116096095E+01   2.7445394971E+01   1.0500000000E-01     0.000  -1.
</event>
<event>
 13   1  9.2978750E-05  1.2500000E+02  7.5467720E-03  1.2380620E-01
   21   -1    0    0  502  501   0.0000000000E+00   0.0000000000E+00   7.2012979931E+01   7.2012979931E+01   0.0000000000E+00     0.000  -1.
   21   -1    0    0  501  502   0.0000000000E+00   0.0000000000E+00  -5.4243693342E+01   5.4243693342E+01   0.0000000000E+00     0.000  -1.
   25    2    1    2    0    0   0.0000000000E+00   0.0000000000E+00   1.7769286590E+01   1.2625667327E+02   1.2500000000E+02  5.303E-09  -1.
3000002    2    3    0    0    0  -2.5865480305E+01  -2.8215507820E+01   5.7756116277E+01   7.0006477703E+01   1.0000000000E+01  4.465E-12  -1.
3000002    2    3    0    0    0   2.5865480305E+01   2.8215507820E+01  -3.9986829687E+01   5.6250195567E+01   1.0000000000E+01  5.745E-11  -1.
3000001    1    4    0    0    0  -1.2904837714E+01  -9.6200384167E+00   3.0960664690E+01   3.4909063775E+01   1.0000000000E+00     0.000   1.
3000022   2   4   0   0   0   -1.2960642591E+01   -1.8595469403E+01   2.6795451587E+01   3.5097413928E+01   2.5000000000E-01   6.862767E-01   0.
3000001    1    5    0    0    0   1.9054985128E+01   1.6168531781E+01  -2.0446224006E+01   3.2304209545E+01   1.0000000000E+00     0.000   1.
3000022   2   5   0   0   0   6.8104951772E+00   1.2046976039E+01   -1.9540605681E+01   2.3945986023E+01   2.5000000000E-01   1.526268E+01   0.
13    1    7    0    0    0  -8.3654222820E+00  -1.2051469219E+01   1.7418945653E+01   2.2773864252E+01   1.0500000000E-01     0.000  -1.
-13    1    7    0    0    0  -4.5952203092E+00  -6.5440001841E+00   9.3765059332E+00   1.2323549676E+01   1.0500000000E-01     0.000   1.
13    1    9    0    0    0   3.4541294909E+00   6.0046695655E+00  -9.7054206570E+00   1.1924482473E+01   1.0500000000E-01     0.000  -1.
-13    1    9    0    0    0   3.3563656863E+00   6.0423064731E+00  -9.8351850236E+00   1.2021503549E+01   1.0500000000E-01     0.000   1.
</event>
<event>
 13   1  9.2978750E-05  1.2500000E+02  7.5467720E-03  1.2380620E-01
   21   -1    0    0  502  501   0.0000000000E+00   0.0000000000E+00   3.3077258937E+02   3.3077258937E+02   0.0000000000E+00     0.000   1.
   21   -1    0    0  501  502   0.0000000000E+00   0.0000000000E+00  -1.1809473111E+01   1.1809473111E+01   0.0000000000E+00     0.000   1.
   25    2    1    2    0    0   0.0000000000E+00   0.0000000000E+00   3.1896311625E+02   3.4258206248E+02   1.2500000000E+02  1.581E-07  -1.
3000002    2    3    0    0    0   1.2440068103E-01  -1.4669247858E+01  -4.7532445844E+00   1.8379217674E+01   1.0000000000E+01  1.292E-10  -1.
3000002    2    3    0    0    0  -1.2440068103E-01   1.4669247858E+01   3.2371636083E+02   3.2420284481E+02   1.0000000000E+01  1.444E-10  -1.
3000001    1    4    0    0    0  -2.3149316792E+00   1.7085512707E-01  -1.6578897009E+00   3.0226972085E+00   1.0000000000E+00     0.000   1.
3000022   2   4   0   0   0   2.4393323602E+00   -1.4840102985E+01   -3.0953548835E+00   1.5356520466E+01   2.5000000000E-01   6.216753E+00   0.
3000001    1    5    0    0    0   4.5470574325E+00   5.7857973514E+00   1.0967443990E+02   1.0992558369E+02   1.0000000000E+00     0.000  -1.
3000022   2   5   0   0   0   -4.6714581135E+00   8.8834505063E+00   2.1404192094E+02   2.1427726112E+02   2.5000000000E-01   2.747105E+00   0.
13    1    7    0    0    0   7.1597350579E-01  -4.3613749472E+00  -8.6482120999E-01   4.5047919170E+00   1.0500000000E-01     0.000  -1.
-13    1    7    0    0    0   1.7233588544E+00  -1.0478728038E+01  -2.2305336735E+00   1.0851728549E+01   1.0500000000E-01     0.000   1.
13    1    9    0    0    0  -3.5686401081E+00   6.7875465924E+00   1.6383480214E+02   1.6401420487E+02   1.0500000000E-01     0.000  -1.
-13    1    9    0    0    0  -1.1028180054E+00   2.0959039139E+00   5.0207118799E+01   5.0263056253E+01   1.0500000000E-01     0.000   1.
</event>
<event>
 13   1  9.2978750E-05  1.2500000E+02  7.5467720E-03  1.2380620E-01
   21   -1    0    0  502  501   0.0000000000E+00   0.0000000000E+00   4.2768276477E+01   4.2768276477E+01   0.0000000000E+00     0.000  -1.
   21   -1    0    0  501  502   0.0000000000E+00   0.0000000000E+00  -9.1335221378E+01   9.1335221378E+01   0.0000000000E+00     0.000  -1.
   25    2    1    2    0    0   0.0000000000E+00   0.0000000000E+00  -4.8566944901E+01   1.3410349786E+02   1.2500000000E+02  4.684E-08  -1.
3000002    2    3    0    0    0   1.3638117812E+01  -5.4826283065E+01  -5.0874254244E+01   7.6681870850E+01   1.0000000000E+01  2.745E-10  -1.
3000002    2    3    0    0    0  -1.3638117812E+01   5.4826283065E+01   2.3073093427E+00   5.7421627010E+01   1.0000000000E+01  2.452E-10  -1.
3000001    1    4    0    0    0   1.7275247861E+00  -1.3998819666E+00  -1.0192545643E+00   2.6425160877E+00   1.0000000000E+00     0.000   1.
3000022   2   4   0   0   0   1.1910593025E+01   -5.3426401098E+01   -4.9854999679E+01   7.4039354762E+01   2.5000000000E-01   6.590200E+00   0.
3000001    1    5    0    0    0  -9.2830093161E-01   2.2379286396E+01   2.6074795770E+00   2.2571954988E+01   1.0000000000E+00     0.000  -1.
3000022   2   5   0   0   0   -1.2709816880E+01   3.2446996668E+01   -3.0017023430E-01   3.4849672023E+01   2.5000000000E-01   1.702146E+00   0.
13    1    7    0    0    0   6.2123224982E+00  -2.7933624336E+01  -2.5974106945E+01   3.8646417376E+01   1.0500000000E-01     0.000   1.
-13    1    7    0    0    0   5.6982705272E+00  -2.5492776762E+01  -2.3880892734E+01   3.5392937386E+01   1.0500000000E-01     0.000  -1.
13    1    9    0    0    0  -7.0383527912E+00   1.7900088910E+01  -2.2742990419E-01   1.9235756870E+01   1.0500000000E-01     0.000   1.
-13    1    9    0    0    0  -5.6714640887E+00   1.4546907758E+01  -7.2740330117E-02   1.5613915153E+01   1.0500000000E-01     0.000  -1.
</event>
<event>
 13   1  9.2978750E-05  1.2500000E+02  7.5467720E-03  1.2380620E-01
   21   -1    0    0  502  501   0.0000000000E+00   0.0000000000E+00   5.0007313253E+02   5.0007313253E+02   0.0000000000E+00     0.000  -1.
   21   -1    0    0  501  502   0.0000000000E+00   0.0000000000E+00  -7.8113574714E+00   7.8113574714E+00   0.0000000000E+00     0.000  -1.
   25    2    1    2    0    0   0.0000000000E+00   0.0000000000E+00   4.9226177506E+02   5.0788449000E+02   1.2500000000E+02  6.846E-09  -1.
3000002    2    3    0    0    0   4.7859357172E+01   2.3275391555E+01   1.1932723659E+02   1.3103912131E+02   1.0000000000E+01  1.245E-11  -1.
3000002    2    3    0    0    0  -4.7859357172E+01  -2.3275391555E+01   3.7293453847E+02   3.7684536869E+02   1.0000000000E+01  7.027E-10  -1.
3000001    1    4    0    0    0   4.7453630450E+01   2.1855104005E+01   1.1241247067E+02   1.2396393094E+02   1.0000000000E+00     0.000  -1.
3000022   2   4   0   0   0   4.0572672260E-01   1.4202875492E+00   6.9147659263E+00   7.0751903658E+00   2.5000000000E-01   2.680649E-01   0.
3000001    1    5    0    0    0  -2.4168111429E+01  -1.6782975221E+01   2.1686032328E+02   2.1884964172E+02   1.0000000000E+00     0.000  -1.
3000022   2   5   0   0   0   -2.3691245743E+01   -6.4924163340E+00   1.5607421519E+02   1.5799572697E+02   2.5000000000E-01   5.249612E-01   0.
13    1    7    0    0    0   1.2564125544E-01   4.6403450389E-01   2.0383126151E+00   2.0968683943E+00   1.0500000000E-01     0.000   1.
-13    1    7    0    0    0   2.8008546717E-01   9.5625304527E-01   4.8764533112E+00   4.9783219715E+00   1.0500000000E-01     0.000  -1.
13    1    9    0    0    0  -1.0048256842E+01  -2.8146958018E+00   6.6479748954E+01   6.7293818616E+01   1.0500000000E-01     0.000   1.
-13    1    9    0    0    0  -1.3642988901E+01  -3.6777205323E+00   8.9594466237E+01   9.0701908358E+01   1.0500000000E-01     0.000  -1.
</event>
<event>
 13   1  9.2978750E-05  1.2500000E+02  7.5467720E-03  1.2380620E-01
   21   -1    0    0  502  501   0.0000000000E+00   0.0000000000E+00   2.9840635876E+01   2.9840635876E+01   0.0000000000E+00     0.000  -1.
   21   -1    0    0  501  502   0.0000000000E+00   0.0000000000E+00  -1.3090371185E+02   1.3090371185E+02   0.0000000000E+00     0.000  -1.
   25    2    1    2    0    0   0.0000000000E+00   0.0000000000E+00  -1.0106307597E+02   1.6074434772E+02   1.2500000000E+02  1.511E-08  -1.
3000002    2    3    0    0    0   1.5555925800E+01  -5.9667764715E+01  -5.3110198392E+01   8.1993427461E+01   1.0000000000E+01  1.295E-09  -1.
3000002    2    3    0    0    0  -1.5555925800E+01   5.9667764715E+01  -4.7952877578E+01   7.8750920259E+01   1.0000000000E+01  1.733E-09  -1.
3000001    1    4    0    0    0   1.2992260696E+01  -3.2469224701E+01  -3.2726366348E+01   4.7906830881E+01   1.0000000000E+00     0.000   1.
3000022   2   4   0   0   0   2.5636651048E+00   -2.7198540014E+01   -2.0383832045E+01   3.4086596581E+01   2.5000000000E-01   1.072675E+01   0.
3000001    1    5    0    0    0  -3.7061578011E+00   1.4446283359E+01  -1.7230479515E+01   2.2810526799E+01   1.0000000000E+00     0.000  -1.
3000022   2   5   0   0   0   -1.1849767999E+01   4.5221481356E+01   -3.0722398062E+01   5.5940393459E+01   2.5000000000E-01   6.249213E+00   0.
13    1    7    0    0    0   1.7502553465E+00  -1.8289207000E+01  -1.3764826405E+01   2.2957350836E+01   1.0500000000E-01     0.000   1.
-13    1    7    0    0    0   8.1340975830E-01  -8.9093330134E+00  -6.6190056397E+00   1.1129245744E+01   1.0500000000E-01     0.000  -1.
13    1    9    0    0    0  -8.5972887187E+00   3.2936188266E+01  -2.2349196075E+01   4.0721044449E+01   1.0500000000E-01     0.000   1.
-13    1    9    0    0    0  -3.2524792805E+00   1.2285293090E+01  -8.3732019870E+00   1.5219349010E+01   1.0500000000E-01     0.000  -1.
</event>
<event>
 13   1  9.2978750E-05  1.2500000E+02  7.5467720E-03  1.2380620E-01
   21   -1    0    0  502  501   0.0000000000E+00   0.0000000000E+00   9.6746036539E+00   9.6746036539E+00   0.0000000000E+00     0.000   1.
   21   -1    0    0  501  502   0.0000000000E+00   0.0000000000E+00  -4.0376331060E+02   4.0376331060E+02   0.0000000000E+00     0.000   1.
   25    2    1    2    0    0   0.0000000000E+00   0.0000000000E+00  -3.9408870694E+02   4.1343791425E+02   1.2500000000E+02  1.246E-08  -1.
3000002    2    3    0    0    0  -4.9377101849E+01  -6.9611159159E+00  -7.6890688943E+01   9.2188575040E+01   1.0000000000E+01  5.046E-10   1.
3000002    2    3    0    0    0   4.9377101849E+01   6.9611159159E+00  -3.1719801800E+02   3.2124933921E+02   1.0000000000E+01  2.775E-10   1.
3000001    1    4    0    0    0  -4.7056994262E+01  -8.7557893060E+00  -7.3232323487E+01   8.7492844042E+01   1.0000000000E+00     0.000   1.
3000022   2   4   0   0   0   -2.3201075865E+00   1.7946733901E+00   -3.6583654566E+00   4.6957309978E+00   2.5000000000E-01   5.447879E+00   0.
3000001    1    5    0    0    0   4.9481835444E+01   6.5409767516E+00  -3.1635058350E+02   3.2026540260E+02   1.0000000000E+00     0.000   1.
3000022   2   5   0   0   0   -1.0473359533E-01   4.2013916425E-01   -8.4743449205E-01   9.8393661465E-01   2.5000000000E-01   1.681626E+01   0.
13    1    7    0    0    0  -1.3450190115E+00   1.1203063609E+00  -2.1880054125E+00   2.8040248160E+00   1.0500000000E-01     0.000   1.
-13    1    7    0    0    0  -9.7508857500E-01   6.7436702917E-01  -1.4703600441E+00   1.8917061819E+00   1.0500000000E-01     0.000  -1.
13    1    9    0    0    0  -1.9029030781E-02   7.9764412917E-02  -2.4350968780E-01   2.7757239350E-01   1.0500000000E-01     0.000  -1.
-13    1    9    0    0    0  -8.5704564547E-02   3.4037475133E-01  -6.0392480425E-01   7.0636422115E-01   1.0500000000E-01     0.000   1.
</event>
<event>
 13   1  9.2978750E-05  1.2500000E+02  7.5467720E-03  1.2380620E-01
   21   -1    0    0  502  501   0.0000000000E+00   0.0000000000E+00   1.5718941139E+02   1.5718941139E+02   0.0000000000E+00     0.000   1.
   21   -1    0    0  501  502   0.0000000000E+00   0.0000000000E+00  -2.4850592451E+01   2.4850592451E+01   0.0000000000E+00     0.000   1.
   25    2    1    2    0    0   0.0000000000E+00   0.0000000000E+00   1.3233881894E+02   1.8204000384E+02   1.2500000000E+02  5.713E-08  -1.
3000002    2    3    0    0    0  -4.6355660571E+01   2.1516140760E+01   1.5837623511E+01   5.4429972429E+01   1.0000000000E+01  3.055E-10   1.
3000002    2    3    0    0    0   4.6355660571E+01  -2.1516140760E+01   1.1650119543E+02   1.2761003141E+02   1.0000000000E+01  1.268E-09   1.
3000001    1    4    0    0    0  -1.0082085551E+01   8.3332402413E+00   6.8608716050E+00   1.4804151484E+01   1.0000000000E+00     0.000   1.
3000022   2   4   0   0   0   -3.6273575020E+01   1.3182900518E+01   8.9767519059E+00   3.9625820945E+01   2.5000000000E-01   1.785127E+00   0.
3000001    1    5    0    0    0   1.6361098950E+01  -9.6363767024E+00   5.4420136970E+01   5.7646306236E+01   1.0000000000E+00     0.000  -1.
3000022   2   5   0   0   0   2.9994561622E+01   -1.1879764057E+01   6.2081058459E+01   6.9963725175E+01   2.5000000000E-01   1.116370E+01   0.
13    1    7    0    0    0  -1.0600822465E+01   3.8974232757E+00   2.6148037592E+00   1.1593772847E+01   1.0500000000E-01     0.000  -1.
-13    1    7    0    0    0  -2.5672752555E+01   9.2854772425E+00   6.3619481467E+00   2.8032048099E+01   1.0500000000E-01     0.000   1.
13    1    9    0    0    0   1.7459265441E+01  -6.9840756086E+00   3.6170370160E+01   4.0766529953E+01   1.0500000000E-01     0.000   1.
-13    1    9    0    0    0   1.2535296181E+01  -4.8956884484E+00   2.5910688299E+01   2.9197195222E+01   1.0500000000E-01     0.000  -1.
</event>
<event>
 13   1  9.2978750E-05  1.2500000E+02  7.5467720E-03  1.2380620E-01
   21   -1    0    0  502  501   0.0000000000E+00   0.0000000000E+00   1.8033283845E+01   1.8033283845E+01   0.0000000000E+00     0.000   1.
   21   -1    0    0  501  502   0.0000000000E+00   0.0000000000E+00  -2.1661334860E+02   2.1661334860E+02   0.0000000000E+00     0.000   1.
   25    2    1    2    0    0   0.0000000000E+00   0.0000000000E+00  -1.9858006475E+02   2.3464663244E+02   1.2500000000E+02  3.803E-08  -1.
3000002    2    3    0    0    0   1.6982621058E+01   5.8839322541E+01  -1.1330922338E+02   1.2918767510E+02   1.0000000000E+01  1.459E-09  -1.
3000002    2    3    0    0    0  -1.6982621058E+01  -5.8839322541E+01  -8.5270841369E+01   1.0545895734E+02   1.0000000000E+01  1.203E-09  -1.
3000001    1    4    0    0    0   9.6831754164E+00   4.0483996458E+01  -6.7634749866E+01   7.9424034428E+01   1.0000000000E+00     0.000   1.
3000022   2   4   0   0   0   7.2994456411E+00   1.8355326083E+01   -4.5674473515E+01   4.9763640674E+01   2.5000000000E-01   1.853430E-01   0.
3000001    1    5    0    0    0  -1.6809450556E+01  -4.4189026350E+01  -6.7687984466E+01   8.2570520882E+01   1.0000000000E+00     0.000  -1.
3000022   2   5   0   0   0   -1.7317050145E-01   -1.4650296191E+01   -1.7582856904E+01   2.2888436456E+01   2.5000000000E-01   1.719161E-01   0.
13    1    7    0    0    0   3.8330298617E+00   9.7646783313E+00  -2.4377495260E+01   2.6538921624E+01   1.0500000000E-01     0.000   1.
-13    1    7    0    0    0   3.4664157794E+00   8.5906477516E+00  -2.1296978255E+01   2.3224719050E+01   1.0500000000E-01     0.000  -1.
13    1    9    0    0    0  -4.2912507424E-02  -5.9190671275E+00  -7.1936252319E+00   9.3164621032E+00   1.0500000000E-01     0.000  -1.
-13    1    9    0    0    0  -1.3025799402E-01  -8.7312290636E+00  -1.0389231672E+01   1.3571974353E+01   1.0500000000E-01     0.000   1.
</event>
<event>
 13   1  9.2978750E-05  1.2500000E+02  7.5467720E-03  1.2380620E-01
   21   -1    0    0  502  501   0.0000000000E+00   0.0000000000E+00   2.4014780034E+01   2.4014780034E+01   0.0000000000E+00     0.000   1.
   21   -1    0    0  501  502   0.0000000000E+00   0.0000000000E+00  -1.6266024483E+02   1.6266024483E+02   0.0000000000E+00     0.000   1.
   25    2    1    2    0    0   0.0000000000E+00   0.0000000000E+00  -1.3864546480E+02   1.8667502487E+02   1.2500000000E+02  2.249E-08  -1.
3000002    2    3    0    0    0  -3.6268202820E+01  -3.1376384507E+01  -1.2728493906E+02   1.3638664067E+02   1.0000000000E+01  8.446E-11  -1.
3000002    2    3    0    0    0   3.6268202820E+01   3.1376384507E+01  -1.1360525735E+01   5.0288384200E+01   1.0000000000E+01  5.618E-10  -1.
3000001    1    4    0    0    0  -1.0474386700E+01  -8.1713040015E+00  -4.8570204876E+01   5.0364151809E+01   1.0000000000E+00     0.000   1.
3000022   2   4   0   0   0   -2.5793816120E+01   -2.3205080505E+01   -7.8714734189E+01   8.6022488861E+01   2.5000000000E-01   4.813031E+00   0.
3000001    1    5    0    0    0   1.6212059882E+00   6.8929427827E-01  -2.4082507265E+00   3.1469202437E+00   1.0000000000E+00     0.000   1.
3000022   2   5   0   0   0   3.4646996831E+01   3.0687090228E+01   -8.9522750086E+00   4.7141463956E+01   2.5000000000E-01   2.472814E+00   0.
13    1    7    0    0    0  -1.9728597222E+01  -1.7760150120E+01  -6.0193275447E+01   6.5786639333E+01   1.0500000000E-01     0.000  -1.
-13    1    7    0    0    0  -6.0652188979E+00  -5.4449303852E+00  -1.8521458742E+01   2.0235849528E+01   1.0500000000E-01     0.000   1.
13    1    9    0    0    0   1.1678574231E+01   1.0274385335E+01  -2.9935778055E+00   1.5840600467E+01   1.0500000000E-01     0.000  -1.
-13    1    9    0    0    0   2.2968422600E+01   2.0412704893E+01  -5.9586972031E+00   3.1300863489E+01   1.0500000000E-01     0.000   1.
</event>
<event>
 13   1  9.2978750E-05  1.2500000E+02  7.5467720E-03  1.2380620E-01
   21   -1    0    0  502  501   0.0000000000E+00   0.0000000000E+00   2.0757114949E+01   2.0757114949E+01   0.0000000000E+00     0.000  -1.
   21   -1    0    0  501  502   0.0000000000E+00   0.0000000000E+00  -1.8818848426E+02   1.8818848426E+02   0.0000000000E+00     0.000  -1.
   25    2    1    2    0    0   0.0000000000E+00   0.0000000000E+00  -1.6743136932E+02   2.0894559921E+02   1.2500000000E+02  8.116E-09  -1.
3000002    2    3    0    0    0  -2.7768416160E+01   1.8539147081E+01   3.0039802384E+00   3.4982978830E+01   1.0000000000E+01  6.831E-10   1.
3000002    2    3    0    0    0   2.7768416160E+01  -1.8539147081E+01  -1.7043534956E+02   1.7396262038E+02   1.0000000000E+01  1.651E-10   1.
3000001    1    4    0    0    0  -4.7789282354E+00   2.0183527284E+00   4.0433360229E+00   6.6528542002E+00   1.0000000000E+00     0.000  -1.
3000022   2   4   0   0   0   -2.2989487925E+01   1.6520794352E+01   -1.0393557845E+00   2.8330124629E+01   2.5000000000E-01   1.003401E+01   0.
3000001    1    5    0    0    0  -5.0752827763E-01  -1.9719212760E-01  -4.8644873250E+00   4.9959690374E+00   1.0000000000E+00     0.000   1.
3000022   2   5   0   0   0   2.8275944438E+01   -1.8341954953E+01   -1.6557086223E+02   1.6896665134E+02   2.5000000000E-01   4.855831E-01   0.
13    1    7    0    0    0  -1.5199400046E+01   1.0988285374E+01  -6.7811197153E-01   1.8767925780E+01   1.0500000000E-01     0.000   1.
-13    1    7    0    0    0  -7.7900878783E+00   5.5325089784E+00  -3.6124381297E-01   9.5621988496E+00   1.0500000000E-01     0.000  -1.
13    1    9    0    0    0   2.0229965245E+01  -1.3129144081E+01  -1.1867724457E+02   1.2110295340E+02   1.0500000000E-01     0.000  -1.
-13    1    9    0    0    0   8.0459791924E+00  -5.2128108718E+00  -4.6893617662E+01   4.7863697943E+01   1.0500000000E-01     0.000   1.
</event>
<event>
 13   1  9.2978750E-05  1.2500000E+02  7.5467720E-03  1.2380620E-01
   21   -1    0    0  502  501   0.0000000000E+00   0.0000000000E+00   1.2106756929E+02   1.2106756929E+02   0.0000000000E+00     0.000  -1.
   21   -1    0    0  501  502   0.0000000000E+00   0.0000000000E+00  -3.2265040281E+01   3.2265040281E+01   0.0000000000E+00     0.000  -1.
   25    2    1    2    0    0   0.0000000000E+00   0.0000000000E+00   8.8802529013E+01   1.5333260958E+02   1.2500000000E+02  2.547E-08  -1.
3000002    2    3    0    0    0  -4.8360927735E+01  -2.5266352586E+01   9.0810540774E+00   5.6210616858E+01   1.0000000000E+01  3.284E-10   1.
3000002    2    3    0    0    0   4.8360927735E+01   2.5266352586E+01   7.9721474936E+01   9.7121992722E+01   1.0000000000E+01  1.326E-10   1.
3000001    1    4    0    0    0  -2.9035742460E+01  -2.0525889192E+01   5.9082498940E+00   3.6059587964E+01   1.0000000000E+00     0.000  -1.
3000022   2   4   0   0   0   -1.9325185275E+01   -4.7404633946E+00   3.1728041834E+00   2.0151028894E+01   2.5000000000E-01   3.400252E+00   0.
3000001    1    5    0    0    0   1.6929926509E+01   1.4276250881E+01   3.1165447401E+01   3.8245507743E+01   1.0000000000E+00     0.000   1.
3000022   2   5   0   0   0   3.1431001225E+01   1.0990101706E+01   4.8556027534E+01   5.8876484979E+01   2.5000000000E-01   2.151410E+00   0.
13    1    7    0    0    0  -1.1265316432E+01  -2.8070100063E+00   1.9004414580E+00   1.1764750836E+01   1.0500000000E-01     0.000   1.
-13    1    7    0    0    0  -8.0598688427E+00  -1.9334533883E+00   1.2723627254E+00   8.3862780583E+00   1.0500000000E-01     0.000  -1.
13    1    9    0    0    0   9.5193184047E+00   3.2897824799E+00   1.4636968967E+01   1.7767722904E+01   1.0500000000E-01     0.000  -1.
-13    1    9    0    0    0   2.1911682821E+01   7.7003192257E+00   3.3919058568E+01   4.1108762075E+01   1.0500000000E-01     0.000   1.
</event>
<event>
 13   1  9.2978750E-05  1.2500000E+02  7.5467720E-03  1.2380620E-01
   21   -1    0    0  502  501   0.0000000000E+00   0.0000000000E+00   2.2855228859E+02   2.2855228859E+02   0.0000000000E+00     0.000  -1.
   21   -1    0    0  501  502   0.0000000000E+00   0.0000000000E+00  -1.7091274929E+01   1.7091274929E+01   0.0000000000E+00     0.000  -1.
   25    2    1    2    0    0   0.0000000000E+00   0.0000000000E+00   2.1146101366E+02   2.4564356352E+02   1.2500000000E+02  7.872E-09  -1.
3000002    2    3    0    0    0  -6.2336939326E-01  -1.9488012514E+01   2.2075598529E+02   2.2184088050E+02   1.0000000000E+01  1.877E-10  -1.
3000002    2    3    0    0    0   6.2336939326E-01   1.9488012514E+01  -9.2949716308E+00   2.3802683016E+01   1.0000000000E+01  6.873E-10  -1.
3000001    1    4    0    0    0  -2.3818976477E+00  -1.8636317404E+01   1.6838460778E+02   1.6943247003E+02   1.0000000000E+00     0.000   1.
3000022   2   4   0   0   0   1.7585282544E+00   -8.5169510933E-01   5.2371377513E+01   5.2408410478E+01   2.5000000000E-01   2.317117E+00   0.
3000001    1    5    0    0    0  -1.2828926355E-01   4.2340634733E-01   1.5179743769E+00   1.8708226209E+00   1.0000000000E+00     0.000   1.
3000022   2   5   0   0   0   7.5165865681E-01   1.9064606166E+01   -1.0812946008E+01   2.1931860395E+01   2.5000000000E-01   1.628216E+00   0.
13    1    7    0    0    0   8.4340401512E-01  -3.3675878828E-01   2.3811320973E+01   2.3828864184E+01   1.0500000000E-01     0.000   1.
-13    1    7    0    0    0   9.1512423933E-01  -5.1493632105E-01   2.8560056540E+01   2.8579546294E+01   1.0500000000E-01     0.000  -1.
13    1    9    0    0    0   4.8503375662E-01   1.2596158397E+01  -7.0822679322E+00   1.4459184215E+01   1.0500000000E-01     0.000   1.
-13    1    9    0    0    0   2.6662490019E-01   6.4684477695E+00  -3.7306780755E+00   7.4726761798E+00   1.0500000000E-01     0.000  -1.
</event>
<event>
 13   1  9.2978750E-05  1.2500000E+02  7.5467720E-03  1.2380620E-01
   21   -1    0    0  502  501   0.0000000000E+00   0.0000000000E+00   8.0508606442E+01   8.0508606442E+01   0.0000000000E+00     0.000  -1.
   21   -1    0    0  501  502   0.0000000000E+00   0.0000000000E+00  -4.8519657371E+01   4.8519657371E+01   0.0000000000E+00     0.000  -1.
   25    2    1    2    0    0   0.0000000000E+00   0.0000000000E+00   3.1988949071E+01   1.2902826381E+02   1.2500000000E+02  2.791E-08  -1.
3000002    2    3    0    0    0  -4.1245367117E+01  -3.2421455187E+01  -1.7515835357E+01   5.6206187856E+01   1.0000000000E+01  2.740E-10   1.
3000002    2    3    0    0    0   4.1245367117E+01   3.2421455187E+01   4.9504784428E+01   7.2822075954E+01   1.0000000000E+01  5.736E-11   1.
3000001    1    4    0    0    0  -4.1780758695E+01  -3.2176001468E+01  -1.7481061779E+01   5.5565406401E+01   1.0000000000E+00     0.000   1.
3000022   2   4   0   0   0   5.3539157870E-01   -2.4545371820E-01   -3.4773578846E-02   6.4078145425E-01   2.5000000000E-01   5.032230E+00   0.
3000001    1    5    0    0    0   2.4131273013E+01   1.3231605814E+01   2.8360511099E+01   3.9531156313E+01   1.0000000000E+00     0.000  -1.
3000022   2   5   0   0   0   1.7114094103E+01   1.9189849373E+01   2.1144273329E+01   3.3290919641E+01   2.5000000000E-01   9.267286E+00   0.
13    1    7    0    0    0   2.2430427355E-01  -1.3903578839E-01  -7.3755463091E-02   2.9344203162E-01   1.0500000000E-01     0.000   1.
-13    1    7    0    0    0   3.1108730516E-01  -1.0641792981E-01   3.8981884245E-02   3.4733942263E-01   1.0500000000E-01     0.000  -1.
13    1    9    0    0    0   4.8562610489E+00   5.3859514903E+00   5.9748739050E+00   9.3969084284E+00   1.0500000000E-01     0.000  -1.
-13    1    9    0    0    0   1.2257833054E+01   1.3803897883E+01   1.5169399424E+01   2.3894011213E+01   1.0500000000E-01     0.000   1.
</event>
<event>
 13   1  9.2978750E-05  1.2500000E+02  7.5467720E-03  1.2380620E-01
   21   -1    0    0  502  501   0.0000000000E+00   0.0000000000E+00   3.1199353002E+01   3.1199353002E+01   0.0000000000E+00     0.000  -1.
   21   -1    0    0  501  502   0.0000000000E+00   0.0000000000E+00  -1.2520291686E+02   1.2520291686E+02   0.0000000000E+00     0.000  -1.
   25    2    1    2    0    0   0.0000000000E+00   0.0000000000E+00  -9.4003563861E+01   1.5640226986E+02   1.2500000000E+02  4.155E-08  -1.
3000002    2    3    0    0    0  -3.1171940975E+01  -1.1826126532E+01   1.7949612253E+01   3.9162938512E+01   1.0000000000E+01  4.346E-10   1.
3000002    2    3    0    0    0   3.1171940975E+01   1.1826126532E+01  -1.1195317611E+02   1.1723933135E+02   1.0000000000E+01  9.661E-10   1.
3000001    1    4    0    0    0  -3.1011614729E+01  -1.1059224599E+01   1.5171585810E+01   3.6265737450E+01   1.0000000000E+00     0.000   1.
3000022   2   4   0   0   0   -1.6032624643E-01   -7.6690193313E-01   2.7780264424E+00   2.8972010622E+00   2.5000000000E-01   4.457276E-01   0.
3000001    1    5    0    0    0   2.3350187180E+01   1.0185283903E+01  -9.6859335623E+01   1.0015838530E+02   1.0000000000E+00     0.000   1.
3000022   2   5   0   0   0   7.8217537950E+00   1.6408426289E+00   -1.5093840491E+01   1.7080946043E+01   2.5000000000E-01   4.231062E+00   0.
13    1    7    0    0    0  -4.2628507754E-02  -4.3942609449E-01   1.3802518068E+00   1.4529392735E+00   1.0500000000E-01     0.000   1.
-13    1    7    0    0    0  -1.1769773868E-01  -3.2747583864E-01   1.3977746356E+00   1.4442617887E+00   1.0500000000E-01     0.000  -1.
13    1    9    0    0    0   2.5133844283E+00   4.8206432893E-01  -4.8886618677E+00   5.5190150533E+00   1.0500000000E-01     0.000  -1.
-13    1    9    0    0    0   5.3083693667E+00   1.1587782999E+00  -1.0205178623E+01   1.1561930990E+01   1.0500000000E-01     0.000   1.
</event>
<event>
 13   1  9.2978750E-05  1.2500000E+02  7.5467720E-03  1.2380620E-01
   21   -1    0    0  502  501   0.0000000000E+00   0.0000000000E+00   1.4531719097E+02   1.4531719097E+02   0.0000000000E+00     0.000  -1.
   21   -1    0    0  501  502   0.0000000000E+00   0.0000000000E+00  -2.6880852665E+01   2.6880852665E+01   0.0000000000E+00     0.000  -1.
   25    2    1    2    0    0   0.0000000000E+00   0.0000000000E+00   1.1843633830E+02   1.7219804363E+02   1.2500000000E+02  5.735E-08  -1.
3000002    2    3    0    0    0   5.1758870826E+01   2.3150190396E+01   9.2717496375E+01   1.0913957192E+02   1.0000000000E+01  5.349E-11   1.
3000002    2    3    0    0    0  -5.1758870826E+01  -2.3150190396E+01   2.5718841925E+01   6.3058471711E+01   1.0000000000E+01  1.237E-09   1.
3000001    1    4    0    0    0   2.5729235301E+01   8.0033549071E+00   5.0967708626E+01   5.7660684712E+01   1.0000000000E+00     0.000   1.
3000022   2   4   0   0   0   2.6029635525E+01   1.5146835489E+01   4.1749787750E+01   5.1478887207E+01   2.5000000000E-01   2.922497E+00   0.
3000001    1    5    0    0    0  -3.4539787628E+01  -1.2170206500E+01   1.2402716108E+01   3.8677360594E+01   1.0000000000E+00     0.000  -1.
3000022   2   5   0   0   0   -1.7219083198E+01   -1.0979983897E+01   1.3316125816E+01   2.4381111117E+01   2.5000000000E-01   1.454166E+00   0.
13    1    7    0    0    0   8.8183216410E+00   5.1646504407E+00   1.4247108313E+01   1.7533611466E+01   1.0500000000E-01     0.000  -1.
-13    1    7    0    0    0   1.7211313884E+01   9.9821850485E+00   2.7502679436E+01   3.3945275741E+01   1.0500000000E-01     0.000   1.
13    1    9    0    0    0  -7.6149786417E+00  -4.8061123928E+00   5.8104446606E+00   1.0717224837E+01   1.0500000000E-01     0.000   1.
-13    1    9    0    0    0  -9.6041045561E+00  -6.1738715039E+00   7.5056811558E+00   1.3663886280E+01   1.0500000000E-01     0.000  -1.
</event>
<event>
 13   1  9.2978750E-05  1.2500000E+02  7.5467720E-03  1.2380620E-01
   21   -1    0    0  502  501   0.0000000000E+00   0.0000000000E+00   6.4162244875E+02   6.4162244875E+02   0.0000000000E+00     0.000   1.
   21   -1    0    0  501  502   0.0000000000E+00   0.0000000000E+00  -6.0880818737E+00   6.0880818737E+00   0.0000000000E+00     0.000   1.
   25    2    1    2    0    0   0.0000000000E+00   0.0000000000E+00   6.3553436688E+02   6.4771053062E+02   1.2500000000E+02  5.242E-08  -1.
3000002    2    3    0    0    0  -4.9852420863E+01  -3.3545201615E+01   3.9025625707E+02   3.9498163324E+02   1.0000000000E+01  3.413E-10   1.
3000002    2    3    0    0    0   4.9852420863E+01   3.3545201615E+01   2.4527810981E+02   2.5272889738E+02   1.0000000000E+01  1.251E-09   1.
3000001    1    4    0    0    0  -3.7827175698E+00  -5.1603835869E+00   3.0638789294E+01   3.1315713634E+01   1.0000000000E+00     0.000   1.
3000022   2   4   0   0   0   -4.6069703293E+01   -2.8384818028E+01   3.5961746777E+02   3.6366591961E+02   2.5000000000E-01   5.302306E-01   0.
3000001    1    5    0    0    0   3.7335416021E+01   2.5554199921E+01   2.0080693976E+02   2.0584308946E+02   1.0000000000E+00     0.000   1.
3000022   2   5   0   0   0   1.2517004842E+01   7.9910016943E+00   4.4471170049E+01   4.6885807914E+01   2.5000000000E-01   2.675281E+00   0.
13    1    7    0    0    0  -2.9467715332E+01  -1.8212678126E+01   2.3000425017E+02   2.3259839641E+02   1.0500000000E-01     0.000   1.
-13    1    7    0    0    0  -1.6601987962E+01  -1.0172139902E+01   1.2961321760E+02   1.3106752320E+02   1.0500000000E-01     0.000  -1.
13    1    9    0    0    0   5.0808878566E+00   3.1734336710E+00   1.8010903986E+01   1.8981301064E+01   1.0500000000E-01     0.000   1.
-13    1    9    0    0    0   7.4361169858E+00   4.8175680233E+00   2.6460266063E+01   2.7904506851E+01   1.0500000000E-01     0.000  -1.
</event>
<event>
 13   1  9.2978750E-05  1.2500000E+02  7.5467720E-03  1.2380620E-01
   21   -1    0    0  502  501   0.0000000000E+00   0.0000000000E+00   8.0014075928E+01   8.0014075928E+01   0.0000000000E+00     0.000  -1.
   21   -1    0    0  501  502   0.0000000000E+00   0.0000000000E+00  -4.8819535247E+01   4.8819535247E+01   0.0000000000E+00     0.000  -1.
   25    2    1    2    0    0   0.0000000000E+00   0.0000000000E+00   3.1194540681E+01   1.2883361117E+02   1.2500000000E+02  4.189E-09  -1.
3000002    2    3    0    0    0   4.0534025960E+01  -4.3178553412E+01   3.3414887465E+01   6.8730993297E+01   1.0000000000E+01  3.688E-11  -1.
3000002    2    3    0    0    0  -4.0534025960E+01   4.3178553412E+01  -2.2203467842E+00   6.0102617873E+01   1.0000000000E+01  1.024E-09  -1.
3000001    1    4    0    0    0   1.1741678240E+01  -6.5889217284E+00   7.5714560871E+00   1.5479271453E+01   1.0000000000E+00     0.000   1.
3000022   2   4   0   0   0   2.8792347721E+01   -3.6589631684E+01   2.5843431378E+01   5.3251721844E+01   2.5000000000E-01   1.050996E+01   0.
3000001    1    5    0    0    0  -3.4128893753E+01   4.0735468409E+01  -1.1874949742E+00   5.3165495574E+01   1.0000000000E+00     0.000  -1.
3000022   2   5   0   0   0   -6.4051322074E+00   2.4430850028E+00   -1.0328518100E+00   6.9371222987E+00   2.5000000000E-01   8.510449E-01   0.
13    1    7    0    0    0   1.0568632595E+01  -1.3340285713E+01   9.4257024738E+00   1.9455439084E+01   1.0500000000E-01     0.000   1.
-13    1    7    0    0    0   1.8223715126E+01  -2.3249345971E+01   1.6417728904E+01   3.3796282761E+01   1.0500000000E-01     0.000  -1.
13    1    9    0    0    0  -3.0687778717E+00   1.1011713475E+00  -4.7183995071E-01   3.2960027157E+00   1.0500000000E-01     0.000   1.
-13    1    9    0    0    0  -3.3363543357E+00   1.3419136554E+00  -5.6101185925E-01   3.6411195830E+00   1.0500000000E-01     0.000  -1.
</event>
<event>
 13   1  9.2978750E-05  1.2500000E+02  7.5467720E-03  1.2380620E-01
   21   -1    0    0  502  501   0.0000000000E+00   0.0000000000E+00   3.2929819102E+01   3.2929819102E+01   0.0000000000E+00     0.000   1.
   21   -1    0    0  501  502   0.0000000000E+00   0.0000000000E+00  -1.1862348797E+02   1.1862348797E+02   0.0000000000E+00     0.000   1.
   25    2    1    2    0    0   0.0000000000E+00   0.0000000000E+00  -8.5693668863E+01   1.5155330707E+02   1.2500000000E+02  7.995E-09  -1.
3000002    2    3    0    0    0  -3.5386838446E+00   3.5975189873E+01  -1.0346225767E+02   1.1005078524E+02   1.0000000000E+01  6.407E-10  -1.
3000002    2    3    0    0    0   3.5386838446E+00  -3.5975189873E+01   1.7768588810E+01   4.1502521828E+01   1.0000000000E+01  1.858E-09  -1.
3000001    1    4    0    0    0  -1.3033176800E+00   1.9265607902E+00  -2.8631546736E+00   3.8220319384E+00   1.0000000000E+00     0.000   1.
3000022   2   4   0   0   0   -2.2353661646E+00   3.4048629083E+01   -1.0059910300E+02   1.0622875330E+02   2.5000000000E-01   5.781324E+00   0.
3000001    1    5    0    0    0  -1.9640244792E+00  -1.7754032621E+00   8.7594757244E-01   2.9625551552E+00   1.0000000000E+00     0.000  -1.
3000022   2   5   0   0   0   5.5027083237E+00   -3.4199786611E+01   1.6892641237E+01   3.8539966672E+01   2.5000000000E-01   7.738402E+00   0.
13    1    7    0    0    0  -6.3668587560E-01   9.9262371482E+00  -2.9199191483E+01   3.0847031641E+01   1.0500000000E-01     0.000   1.
-13    1    7    0    0    0  -1.5986802890E+00   2.4122391935E+01  -7.1399911516E+01   7.5381721662E+01   1.0500000000E-01     0.000  -1.
13    1    9    0    0    0   1.9407696921E+00  -1.2050357896E+01   6.0157014676E+00   1.3607990358E+01   1.0500000000E-01     0.000   1.
-13    1    9    0    0    0   3.5619386316E+00  -2.2149428715E+01   1.0876939770E+01   2.4931976315E+01   1.0500000000E-01     0.000  -1.
</event>
<event>
 13   1  9.2978750E-05  1.2500000E+02  7.5467720E-03  1.2380620E-01
   21   -1    0    0  502  501   0.0000000000E+00   0.0000000000E+00   1.2684625273E+01   1.2684625273E+01   0.0000000000E+00     0.000   1.
   21   -1    0    0  501  502   0.0000000000E+00   0.0000000000E+00  -3.0795154889E+02   3.0795154889E+02   0.0000000000E+00     0.000   1.
   25    2    1    2    0    0   0.0000000000E+00   0.0000000000E+00  -2.9526692361E+02   3.2063617416E+02   1.2500000000E+02  2.218E-08  -1.
3000002    2    3    0    0    0  -4.4960203256E+01  -2.0929945851E+01  -2.4176796112E+02   2.4700451319E+02   1.0000000000E+01  6.568E-10   1.
3000002    2    3    0    0    0   4.4960203256E+01   2.0929945851E+01  -5.3498962487E+01   7.3631660971E+01   1.0000000000E+01  1.272E-09   1.
3000001    1    4    0    0    0  -2.2545440059E+01  -1.4463768681E+01  -1.4562382807E+02   1.4807024270E+02   1.0000000000E+00     0.000   1.
3000022   2   4   0   0   0   -2.2414763197E+01   -6.4661771704E+00   -9.6144133049E+01   9.8934270484E+01   2.5000000000E-01   3.379767E+00   0.
3000001    1    5    0    0    0   3.5817896697E+01   1.6132033022E+01  -3.5897930072E+01   5.3224295173E+01   1.0000000000E+00     0.000   1.
3000022   2   5   0   0   0   9.1423065591E+00   4.7979128296E+00   -1.7601032415E+01   2.0407365798E+01   2.5000000000E-01   1.005383E+00   0.
13    1    7    0    0    0  -7.3424985756E+00  -2.1009951758E+00  -3.1266066560E+01   3.2185468914E+01   1.0500000000E-01     0.000   1.
-13    1    7    0    0    0  -1.5072264622E+01  -4.3651819946E+00  -6.4878066489E+01   6.6748801570E+01   1.0500000000E-01     0.000  -1.
13    1    9    0    0    0   5.2158306531E+00   2.6681200150E+00  -1.0033166722E+01   1.1618916184E+01   1.0500000000E-01     0.000   1.
-13    1    9    0    0    0   3.9264759059E+00   2.1297928146E+00  -7.5678656928E+00   8.7884496140E+00   1.0500000000E-01     0.000  -1.
</event>
<event>
 13   1  9.2978750E-05  1.2500000E+02  7.5467720E-03  1.2380620E-01
   21   -1    0    0  502  501   0.0000000000E+00   0.0000000000E+00   4.2501733771E+01   4.2501733771E+01   0.0000000000E+00     0.000   1.
   21   -1    0    0  501  502   0.0000000000E+00   0.0000000000E+00  -9.1908015354E+01   9.1908015354E+01   0.0000000000E+00     0.000   1.
   25    2    1    2    0    0   0.0000000000E+00   0.0000000000E+00  -4.9406281583E+01   1.3440974913E+02   1.2500000000E+02  3.440E-08  -1.
3000002    2    3    0    0    0   2.9082258550E+01   2.6755476873E+01  -7.5647001222E+01   8.5930798314E+01   1.0000000000E+01  1.100E-09   1.
3000002    2    3    0    0    0  -2.9082258550E+01  -2.6755476873E+01   2.6240719639E+01   4.8478950816E+01   1.0000000000E+01  6.432E-12   1.
3000001    1    4    0    0    0   1.9822275075E+01   2.3597238064E+01  -6.0352739918E+01   6.7773191226E+01   1.0000000000E+00     0.000  -1.
3000022   2   4   0   0   0   9.2599834748E+00   3.1582388096E+00   -1.5294261304E+01   1.8157607088E+01   2.5000000000E-01   1.004763E+01   0.
3000001    1    5    0    0    0  -1.5908647566E+01  -1.1858920282E+01   1.8471399919E+01   2.7127691988E+01   1.0000000000E+00     0.000   1.
3000022   2   5   0   0   0   -1.3173610984E+01   -1.4896556592E+01   7.7693197197E+00   2.1351258828E+01   2.5000000000E-01   1.109144E+01   0.
13    1    7    0    0    0   2.7599096599E+00   9.0521530505E-01  -4.5964999391E+00   5.4383226063E+00   1.0500000000E-01     0.000  -1.
-13    1    7    0    0    0   6.5000738149E+00   2.2530235045E+00  -1.0697761364E+01   1.2719284482E+01   1.0500000000E-01     0.000   1.
13    1    9    0    0    0  -6.7526227033E+00  -7.6535868743E+00   3.9160301380E+00   1.0932594498E+01   1.0500000000E-01     0.000  -1.
-13    1    9    0    0    0  -6.4209882806E+00  -7.2429697174E+00   3.8532895817E+00   1.0418664330E+01   1.0500000000E-01     0.000   1.
</event>
<event>
 13   1  9.2978750E-05  1.2500000E+02  7.5467720E-03  1.2380620E-01
   21   -1    0    0  502  501   0.0000000000E+00   0.0000000000E+00   1.7556832701E+01   1.7556832701E+01   0.0000000000E+00     0.000   1.
   21   -1    0    0  501  502   0.0000000000E+00   0.0000000000E+00  -2.2249172539E+02   2.2249172539E+02   0.0000000000E+00     0.000   1.
   25    2    1    2    0    0   0.0000000000E+00   0.0000000000E+00  -2.0493489269E+02   2.4004855809E+02   1.2500000000E+02  7.311E-08  -1.
3000002    2    3    0    0    0   5.6742177753E+01  -2.1253269812E+01  -8.0164981532E+01   1.0098415954E+02   1.0000000000E+01  7.095E-11  -1.
3000002    2    3    0    0    0  -5.6742177753E+01   2.1253269812E+01  -1.2476991116E+02   1.3906439855E+02   1.0000000000E+01  4.174E-10  -1.
3000001    1    4    0    0    0   5.6764228992E+01  -2.0200989710E+01  -7.9306583164E+01   9.9603171694E+01   1.0000000000E+00     0.000  -1.
3000022   2   4   0   0   0   -2.2051239387E-02   -1.0522801026E+00   -8.5839836865E-01   1.3809878460E+00   2.5000000000E-01   6.374748E+00   0.
3000001    1    5    0    0    0  -5.0710960105E+00  -7.8383950702E-01  -9.9743028660E+00   1.1261311504E+01   1.0000000000E+00     0.000   1.
3000022   2   5   0   0   0   -5.1671081742E+01   2.2037109319E+01   -1.1479560829E+02   1.2780308705E+02   2.5000000000E-01   2.765123E-01   0.
13    1    7    0    0    0   3.5975411738E-02  -5.6353606385E-01  -5.1781364392E-01   7.7331952991E-01   1.0500000000E-01     0.000   1.
-13    1    7    0    0    0  -5.8026651125E-02  -4.8874403878E-01  -3.4058472473E-01   6.0766831611E-01   1.0500000000E-01     0.000  -1.
13    1    9    0    0    0  -3.9314133350E+01   1.6768938606E+01  -8.7301430528E+01   9.7202619205E+01   1.0500000000E-01     0.000   1.
-13    1    9    0    0    0  -1.2356948393E+01   5.2681707136E+00  -2.7494177763E+01   3.0600467842E+01   1.0500000000E-01     0.000  -1.
</event>
<event>
 13   1  9.2978750E-05  1.2500000E+02  7.5467720E-03  1.2380620E-01
   21   -1    0    0  502  501   0.0000000000E+00   0.0000000000E+00   4.3051939072E+02   4.3051939072E+02   0.0000000000E+00     0.000  -1.
   21   -1    0    0  501  502   0.0000000000E+00   0.0000000000E+00  -9.0733427674E+00   9.0733427674E+00   0.0000000000E+00     0.000  -1.
   25    2    1    2    0    0   0.0000000000E+00   0.0000000000E+00   4.2144604795E+02   4.3959273348E+02   1.2500000000E+02  1.106E-07  -1.
3000002    2    3    0    0    0   5.8370365625E+01   1.5893356896E+01   2.5329617615E+02   2.6061207038E+02   1.0000000000E+01  1.424E-10   1.
3000002    2    3    0    0    0  -5.8370365625E+01  -1.5893356896E+01   1.6814987180E+02   1.7898066310E+02   1.0000000000E+01  2.070E-10   1.
3000001    1    4    0    0    0   1.3668166169E+01   8.5599584707E-02   6.5934760580E+01   6.7344032746E+01   1.0000000000E+00     0.000   1.
3000022   2   4   0   0   0   4.4702199456E+01   1.5807757311E+01   1.8736141557E+02   1.9326803763E+02   2.5000000000E-01   5.596235E+00   0.
3000001    1    5    0    0    0  -2.0014097854E+01  -9.7636780934E+00   6.8070656318E+01   7.1627562951E+01   1.0000000000E+00     0.000  -1.
3000022   2   5   0   0   0   -3.8356267771E+01   -6.1296788028E+00   1.0007921548E+02   1.0735310015E+02   2.5000000000E-01   8.639500E+00   0.
13    1    7    0    0    0   1.2049104973E+01   4.2429795759E+00   5.0607823328E+01   5.2195273860E+01   1.0500000000E-01     0.000   1.
-13    1    7    0    0    0   3.2653094483E+01   1.1564777736E+01   1.3675359224E+02   1.4107276377E+02   1.0500000000E-01     0.000  -1.
13    1    9    0    0    0  -1.1371898868E+01  -1.8550801333E+00   2.9756901367E+01   3.1909960986E+01   1.0500000000E-01     0.000   1.
-13    1    9    0    0    0  -2.6984368903E+01  -4.2745986695E+00   7.0322314118E+01   7.5443139163E+01   1.0500000000E-01     0.000  -1.
</event>
<event>
 13   1  9.2978750E-05  1.2500000E+02  7.5467720E-03  1.2380620E-01
   21   -1    0    0  502  501   0.0000000000E+00   0.0000000000E+00   2.0230891701E+02   2.0230891701E+02   0.0000000000E+00     0.000   1.
   21   -1    0    0  501  502   0.0000000000E+00   0.0000000000E+00  -1.9308343190E+01   1.9308343190E+01   0.0000000000E+00     0.000   1.
   25    2    1    2    0    0   0.0000000000E+00   0.0000000000E+00   1.8300057382E+02   2.2161726020E+02   1.2500000000E+02  6.932E-08  -1.
3000002    2    3    0    0    0  -2.1408353944E+01  -5.0797553941E+01   4.2381873439E+01   7.0249073312E+01   1.0000000000E+01  7.501E-12  -1.
3000002    2    3    0    0    0   2.1408353944E+01   5.0797553941E+01   1.4061870038E+02   1.5136818689E+02   1.0000000000E+01  3.066E-10  -1.
3000001    1    4    0    0    0  -1.7256307673E+01  -3.1172029707E+01   3.0646380372E+01   4.7007193284E+01   1.0000000000E+00     0.000  -1.
3000022   2   4   0   0   0   -4.1520462716E+00   -1.9625524234E+01   1.1735493067E+01   2.3241880028E+01   2.5000000000E-01   7.587046E-01   0.
3000001    1    5    0    0    0   2.1602062207E+01   5.0390474307E+01   1.3479358342E+02   1.4552030485E+02   1.0000000000E+00     0.000  -1.
3000022   2   5   0   0   0   -1.9370826292E-01   4.0707963356E-01   5.8251169619E+00   5.8478820387E+00   2.5000000000E-01   1.378809E+00   0.
13    1    7    0    0    0  -3.0242358358E+00  -1.4259174880E+01   8.4847214491E+00   1.6866285712E+01   1.0500000000E-01     0.000  -1.
-13    1    7    0    0    0  -1.1278104358E+00  -5.3663493543E+00   3.2507716177E+00   6.3755943160E+00   1.0500000000E-01     0.000   1.
13    1    9    0    0    0  -1.8227883756E-01   2.6132278026E-01   3.7636888855E+00   3.7786100880E+00   1.0500000000E-01     0.000   1.
-13    1    9    0    0    0  -1.1429425357E-02   1.4575685330E-01   2.0614280763E+00   2.0692719507E+00   1.0500000000E-01     0.000  -1.
</event>
<event>
 13   1  9.2978750E-05  1.2500000E+02  7.5467720E-03  1.2380620E-01
   21   -1    0    0  502  501   0.0000000000E+00   0.0000000000E+00   4.9645719171E+00   4.9645719171E+00   0.0000000000E+00     0.000  -1.
   21   -1    0    0  501  502   0.0000000000E+00   0.0000000000E+00  -7.8682514127E+02   7.8682514127E+02   0.0000000000E+00     0.000  -1.
   25    2    1    2    0    0   0.0000000000E+00   0.0000000000E+00  -7.8186056936E+02   7.9178971319E+02   1.2500000000E+02  1.446E-08  -1.
3000002    2    3    0    0    0   2.6047925173E+01   1.3416549383E+01  -4.7019893201E+01   5.6297145218E+01   1.0000000000E+01  1.288E-10  -1.
3000002    2    3    0    0    0  -2.6047925173E+01  -1.3416549383E+01  -7.3484067616E+02   7.3549256797E+02   1.0000000000E+01  1.786E-10  -1.
3000001    1    4    0    0    0   2.0228631450E+01   5.9916749200E+00  -2.8082068441E+01   3.5138301988E+01   1.0000000000E+00     0.000  -1.
3000022   2   4   0   0   0   5.8192937230E+00   7.4248744627E+00   -1.8937824760E+01   2.1158843231E+01   2.5000000000E-01   2.911506E+00   0.
3000001    1    5    0    0    0  -1.1634113219E+00  -2.6682412892E+00  -1.4089735392E+02   1.4093096672E+02   1.0000000000E+00     0.000   1.
3000022   2   5   0   0   0   -2.4884513851E+01   -1.0748308094E+01   -5.9394332224E+02   5.9456160125E+02   2.5000000000E-01   3.489630E-01   0.
13    1    7    0    0    0   3.0447221870E+00   3.9456824294E+00  -1.0129952475E+01   1.1290071088E+01   1.0500000000E-01     0.000  -1.
-13    1    7    0    0    0   2.7745715360E+00   3.4791920333E+00  -8.8078722847E+00   9.8687721423E+00   1.0500000000E-01     0.000   1.
13    1    9    0    0    0  -7.0597335845E+00  -3.0919705018E+00  -1.6860759651E+02   1.6878368625E+02   1.0500000000E-01     0.000   1.
-13    1    9    0    0    0  -1.7824780266E+01  -7.6563375917E+00  -4.2533572573E+02   4.2577791500E+02   1.0500000000E-01     0.000  -1.
</event>
<event>
 13   1  9.2978750E-05  1.2500000E+02  7.5467720E-03  1.2380620E-01
   21   -1    0    0  502  501   0.0000000000E+00   0.0000000000E+00   7.2343555279E+01   7.2343555279E+01   0.0000000000E+00     0.000  -1.
   21   -1    0    0  501  502   0.0000000000E+00   0.0000000000E+00  -5.3995825681E+01   5.3995825681E+01   0.0000000000E+00     0.000  -1.
   25    2    1    2    0    0   0.0000000000E+00   0.0000000000E+00   1.8347729598E+01   1.2633938096E+02   1.2500000000E+02  4.425E-09  -1.
3000002    2    3    0    0    0  -3.6901002944E+01  -4.5502852542E+01  -1.0373907521E+01   6.0330850856E+01   1.0000000000E+01  1.234E-09  -1.
3000002    2    3    0    0    0   3.6901002944E+01   4.5502852542E+01   2.8721637119E+01   6.6008530104E+01   1.0000000000E+01  5.911E-10  -1.
3000001    1    4    0    0    0  -2.8641609827E+01  -4.0787765956E+01  -9.7693775552E+00   5.0797877937E+01   1.0000000000E+00     0.000  -1.
3000022   2   4   0   0   0   -8.2593931174E+00   -4.7150865858E+00   -6.0452996624E-01   9.5329729182E+00   2.5000000000E-01   1.884453E-01   0.
3000001    1    5    0    0    0   6.2051413072E+00   1.3578614001E+01   9.5365183839E+00   1.7743385238E+01   1.0000000000E+00     0.000   1.
3000022   2   5   0   0   0   3.0695861637E+01   3.1924238541E+01   1.9185118736E+01   4.8265144866E+01   2.5000000000E-01   4.666666E+00   0.
13    1    7    0    0    0  -4.1640752034E+00  -2.3942448756E+00  -2.3901361282E-01   4.8104140499E+00   1.0500000000E-01     0.000  -1.
-13    1    7    0    0    0  -4.0953179140E+00  -2.3208417102E+00  -3.6551635341E-01   4.7225588683E+00   1.0500000000E-01     0.000   1.
13    1    9    0    0    0   2.2024231587E+01   2.2886329991E+01   1.3717307533E+01   3.4598069721E+01   1.0500000000E-01     0.000   1.
-13    1    9    0    0    0   8.6716300498E+00   9.0379085500E+00   5.4678112027E+00   1.3667075145E+01   1.0500000000E-01     0.000  -1.
</event>
<event>
 13   1  9.2978750E-05  1.2500000E+02  7.5467720E-03  1.2380620E-01
   21   -1    0    0  502  501   0.0000000000E+00   0.0000000000E+00   1.2837461748E+02   1.2837461748E+02   0.0000000000E+00     0.000   1.
   21   -1    0    0  501  502   0.0000000000E+00   0.0000000000E+00  -3.0428522995E+01   3.0428522995E+01   0.0000000000E+00     0.000   1.
   25    2    1    2    0    0   0.0000000000E+00   0.0000000000E+00   9.7946094487E+01   1.5880314048E+02   1.2500000000E+02  2.555E-08  -1.
3000002    2    3    0    0    0   3.7739584409E+01   3.7485615720E+01   8.8678708118E+01   1.0389110111E+02   1.0000000000E+01  3.198E-09   1.
3000002    2    3    0    0    0  -3.7739584409E+01  -3.7485615720E+01   9.2673863687E+00   5.4912039366E+01   1.0000000000E+01  4.662E-10   1.
3000001    1    4    0    0    0   1.3169622556E+01   6.9372399343E+00   2.4828552996E+01   2.8965864393E+01   1.0000000000E+00     0.000  -1.
3000022   2   4   0   0   0   2.4569961852E+01   3.0548375785E+01   6.3850155122E+01   7.4925236721E+01   2.5000000000E-01   1.506736E+00   0.
3000001    1    5    0    0    0  -1.5771434800E+01  -1.7291162763E+01   8.9300066578E+00   2.5069253763E+01   1.0000000000E+00     0.000   1.
3000022   2   5   0   0   0   -2.1968149609E+01   -2.0194452957E+01   3.3737971090E-01   2.9842785603E+01   2.5000000000E-01   3.669423E+00   0.
13    1    7    0    0    0   7.4719282066E+00   9.2205319439E+00   1.9361182796E+01   2.2709344876E+01   1.0500000000E-01     0.000  -1.
-13    1    7    0    0    0   1.7098033646E+01   2.1327843841E+01   4.4488972327E+01   5.2215891845E+01   1.0500000000E-01     0.000   1.
13    1    9    0    0    0  -1.2405291198E+01  -1.1492084306E+01   2.0054687947E-01   1.6911844827E+01   1.0500000000E-01     0.000   1.
-13    1    9    0    0    0  -9.5628584110E+00  -8.7023686510E+00   1.3683283142E-01   1.2930940776E+01   1.0500000000E-01     0.000  -1.
</event>
<event>
 13   1  9.2978750E-05  1.2500000E+02  7.5467720E-03  1.2380620E-01
   21   -1    0    0  502  501   0.0000000000E+00   0.0000000000E+00   4.8432344378E+01   4.8432344378E+01   0.0000000000E+00     0.000  -1.
   21   -1    0    0  501  502   0.0000000000E+00   0.0000000000E+00  -8.0653745966E+01   8.0653745966E+01   0.0000000000E+00     0.000  -1.
   25    2    1    2    0    0   0.0000000000E+00   0.0000000000E+00  -3.2221401588E+01   1.2908609034E+02   1.2500000000E+02  7.506E-08  -1.
3000002    2    3    0    0    0   3.3384577703E+01   1.3191231108E+01   3.5706316098E+01   5.1608910237E+01   1.0000000000E+01  4.656E-10   1.
3000002    2    3    0    0    0  -3.3384577703E+01  -1.3191231108E+01  -6.7927717686E+01   7.7477180103E+01   1.0000000000E+01  3.210E-10   1.
3000001    1    4    0    0    0   1.7142942267E+01   2.7494087099E+00   1.2488301996E+01   2.1410217294E+01   1.0000000000E+00     0.000   1.
3000022   2   4   0   0   0   1.6241635436E+01   1.0441822398E+01   2.3218014102E+01   3.0198692943E+01   2.5000000000E-01   1.800196E+00   0.
3000001    1    5    0    0    0  -2.5685997342E+01  -7.9273609715E+00  -4.1544483805E+01   4.9493006032E+01   1.0000000000E+00     0.000   1.
3000022   2   5   0   0   0   -7.6985803611E+00   -5.2638701366E+00   -2.6383233881E+01   2.7984174071E+01   2.5000000000E-01   1.224401E+01   0.
13    1    7    0    0    0   1.1441620822E+01   7.3035765602E+00   1.6306585512E+01   2.1217178740E+01   1.0500000000E-01     0.000  -1.
-13    1    7    0    0    0   4.8000146136E+00   3.1382458379E+00   6.9114285897E+00   8.9815142031E+00   1.0500000000E-01     0.000   1.
13    1    9    0    0    0  -3.5293209413E+00  -2.3944988609E+00  -1.2261612085E+01   1.2982599394E+01   1.0500000000E-01     0.000  -1.
-13    1    9    0    0    0  -4.1692594198E+00  -2.8693712757E+00  -1.4121621796E+01   1.5001574676E+01   1.0500000000E-01     0.000   1.
</event>
<event>
 13   1  9.2978750E-05  1.2500000E+02  7.5467720E-03  1.2380620E-01
   21   -1    0    0  502  501   0.0000000000E+00   0.0000000000E+00   1.2710617503E+02   1.2710617503E+02   0.0000000000E+00     0.000  -1.
   21   -1    0    0  501  502   0.0000000000E+00   0.0000000000E+00  -3.0732181179E+01   3.0732181179E+01   0.0000000000E+00     0.000  -1.
   25    2    1    2    0    0   0.0000000000E+00   0.0000000000E+00   9.6373993852E+01   1.5783835621E+02   1.2500000000E+02  1.396E-07  -1.
3000002    2    3    0    0    0  -6.1448231909E+01  -5.3334668277E+00   4.9936165843E+01   7.9987197302E+01   1.0000000000E+01  5.689E-10  -1.
3000002    2    3    0    0    0   6.1448231909E+01   5.3334668277E+00   4.6437828009E+01   7.7851158908E+01   1.0000000000E+01  2.938E-10  -1.
3000001    1    4    0    0    0  -7.8804094968E+00  -3.6942264257E+00   8.8907974861E+00   1.2481764405E+01   1.0000000000E+00     0.000   1.
3000022   2   4   0   0   0   -5.3567822412E+01   -1.6392404020E+00   4.1045368357E+01   6.7505432897E+01   2.5000000000E-01   1.139956E+00   0.
3000001    1    5    0    0    0   3.2694312551E+00   2.2496443794E+00   1.8769425429E+00   4.5025541502E+00   1.0000000000E+00     0.000  -1.
3000022   2   5   0   0   0   5.8178800654E+01   3.0838224482E+00   4.4560885466E+01   7.3348604758E+01   2.5000000000E-01   2.991315E+00   0.
13    1    7    0    0    0  -3.4288090385E+01  -1.1022392897E+00   2.6303773084E+01   4.3229475791E+01   1.0500000000E-01     0.000  -1.
-13    1    7    0    0    0  -1.9279732027E+01  -5.3700111233E-01   1.4741595273E+01   2.4275957106E+01   1.0500000000E-01     0.000   1.
13    1    9    0    0    0   1.5683372590E+01   8.0060233567E-01   1.2034533081E+01   1.9785099226E+01   1.0500000000E-01     0.000  -1.
-13    1    9    0    0    0   4.2495428064E+01   2.2832201126E+00   3.2526352384E+01   5.3563505532E+01   1.0500000000E-01     0.000   1.
</event>
<event>
 13   1  9.2978750E-05  1.2500000E+02  7.5467720E-03  1.2380620E-01
   21   -1    0    0  502  501   0.0000000000E+00   0.0000000000E+00   2.2613387008E+01   2.2613387008E+01   0.0000000000E+00     0.000  -1.
   21   -1    0    0  501  502   0.0000000000E+00   0.0000000000E+00  -1.7274059824E+02   1.7274059824E+02   0.0000000000E+00     0.000  -1.
   25    2    1    2    0    0   0.0000000000E+00   0.0000000000E+00  -1.5012721123E+02   1.9535398525E+02   1.2500000000E+02  5.896E-09  -1.
3000002    2    3    0    0    0  -6.9743825504E+00  -6.1003286731E+01  -6.5659694579E+01   9.0450198983E+01   1.0000000000E+01  1.703E-10   1.
3000002    2    3    0    0    0   6.9743825504E+00   6.1003286731E+01  -8.4467516651E+01   1.0490378627E+02   1.0000000000E+01  2.580E-09   1.
3000001    1    4    0    0    0  -7.6513742452E+00  -6.0848997959E+01  -6.4065495807E+01   8.8693471200E+01   1.0000000000E+00     0.000   1.
3000022   2   4   0   0   0   6.7699169483E-01   -1.5428877141E-01   -1.5941987726E+00   1.7567277838E+00   2.5000000000E-01   6.494571E+00   0.
3000001    1    5    0    0    0  -6.4390920107E-02   1.7822421786E+01  -1.8172556163E+01   2.5473214599E+01   1.0000000000E+00     0.000  -1.
3000022   2   5   0   0   0   7.0387734705E+00   4.3180864944E+01   -6.6294960488E+01   7.9430571668E+01   2.5000000000E-01   9.692798E-01   0.
13    1    7    0    0    0   3.7981493317E-01  -2.8676106960E-02  -7.7077575035E-01   8.6614199754E-01   1.0500000000E-01     0.000  -1.
-13    1    7    0    0    0   2.9717676166E-01  -1.2561266445E-01  -8.2342302228E-01   8.9058578630E-01   1.0500000000E-01     0.000   1.
13    1    9    0    0    0   3.0168773434E+00   1.8264130129E+01  -2.7956248634E+01   3.3529731001E+01   1.0500000000E-01     0.000  -1.
-13    1    9    0    0    0   4.0218961270E+00   2.4916734815E+01  -3.8338711854E+01   4.5900840667E+01   1.0500000000E-01     0.000   1.
</event>
<event>
 13   1  9.2978750E-05  1.2500000E+02  7.5467720E-03  1.2380620E-01
   21   -1    0    0  502  501   0.0000000000E+00   0.0000000000E+00   2.6451932848E+01   2.6451932848E+01   0.0000000000E+00     0.000  -1.
   21   -1    0    0  501  502   0.0000000000E+00   0.0000000000E+00  -1.4767351870E+02   1.4767351870E+02   0.0000000000E+00     0.000  -1.
   25    2    1    2    0    0   0.0000000000E+00   0.0000000000E+00  -1.2122158585E+02   1.7412545155E+02   1.2500000000E+02  1.075E-07  -1.
3000002    2    3    0    0    0   2.6380413917E+01  -2.3199392808E+01   1.0036768380E+01   3.7879741084E+01   1.0000000000E+01  1.618E-10   1.
3000002    2    3    0    0    0  -2.6380413917E+01   2.3199392808E+01  -1.3125835423E+02   1.3624571047E+02   1.0000000000E+01  2.121E-10   1.
3000001    1    4    0    0    0   8.9779873878E+00  -6.1183996824E+00   7.7583749425E+00   1.3387735206E+01   1.0000000000E+00     0.000   1.
3000022   2   4   0   0   0   1.7402426529E+01   -1.7080993126E+01   2.2783934377E+00   2.4492005878E+01   2.5000000000E-01   5.682244E-01   0.
3000001    1    5    0    0    0  -2.2735058887E+01   2.3418632290E+01  -1.2187010497E+02   1.2616908387E+02   1.0000000000E+00     0.000   1.
3000022   2   5   0   0   0   -3.6453550292E+00   -2.1923948201E-01   -9.3882492642E+00   1.0076626593E+01   2.5000000000E-01   8.487783E-01   0.
13    1    7    0    0    0   9.8584712527E+00  -9.7616521601E+00   1.2716848203E+00   1.3932247328E+01   1.0500000000E-01     0.000  -1.
-13    1    7    0    0    0   7.5439552762E+00  -7.3193409659E+00   1.0067086174E+00   1.0559758549E+01   1.0500000000E-01     0.000   1.
13    1    9    0    0    0  -9.5591236791E-01  -5.9778780851E-02  -2.5630411872E+00   2.7381649120E+00   1.0500000000E-01     0.000   1.
-13    1    9    0    0    0  -2.6894426613E+00  -1.5946070116E-01  -6.8252080769E+00   7.3384616806E+00   1.0500000000E-01     0.000  -1.
</event>
<event>
 13   1  9.2978750E-05  1.2500000E+02  7.5467720E-03  1.2380620E-01
   21   -1    0    0  502  501   0.0000000000E+00   0.0000000000E+00   6.6808100428E+01   6.6808100428E+01   0.0000000000E+00     0.000   1.
   21   -1    0    0  501  502   0.0000000000E+00   0.0000000000E+00  -5.8469706143E+01   5.8469706143E+01   0.0000000000E+00     0.000   1.
   25    2    1    2    0    0   0.0000000000E+00   0.0000000000E+00   8.3383942852E+00   1.2527780657E+02   1.2500000000E+02  7.427E-08  -1.
3000002    2    3    0    0    0  -9.8402212308E+00   8.5680279334E+00  -5.6264143139E+01   5.8616506717E+01   1.0000000000E+01  2.836E-10  -1.
3000002    2    3    0    0    0   9.8402212308E+00  -8.5680279334E+00   6.4602537424E+01   6.6661299853E+01   1.0000000000E+01  6.932E-10  -1.
3000001    1    4    0    0    0  -5.1320247419E+00   9.6060459224E+00  -3.0443727391E+01   3.2348637277E+01   1.0000000000E+00     0.000  -1.
3000022   2   4   0   0   0   -4.7081964888E+00   -1.0380179890E+00   -2.5820415747E+01   2.6267869439E+01   2.5000000000E-01   1.176223E-01   0.
3000001    1    5    0    0    0   2.4111769145E+00  -8.5695896804E+00   3.7808503746E+01   3.8855303330E+01   1.0000000000E+00     0.000  -1.
3000022   2   5   0   0   0   7.4290443163E+00   1.5617469681E-03   2.6794033678E+01   2.7805996523E+01   2.5000000000E-01   1.089019E+01   0.
13    1    7    0    0    0  -1.8324308173E+00  -3.9142156937E-01  -1.0372418712E+01   1.0540830540E+01   1.0500000000E-01     0.000  -1.
-13    1    7    0    0    0  -2.8757656716E+00  -6.4659641964E-01  -1.5447997035E+01   1.5727038899E+01   1.0500000000E-01     0.000   1.
13    1    9    0    0    0   3.4113523921E+00   6.4662898553E-02   1.2229406601E+01   1.2696886124E+01   1.0500000000E-01     0.000   1.
-13    1    9    0    0    0   4.0176919242E+00  -6.3101151585E-02   1.4564627077E+01   1.5109110399E+01   1.0500000000E-01     0.000  -1.
</event>
<event>
 13   1  9.2978750E-05  1.2500000E+02  7.5467720E-03  1.2380620E-01
   21   -1    0    0  502  501   0.0000000000E+00   0.0000000000E+00   6.6545592819E+02   6.6545592819E+02   0.0000000000E+00     0.000  -1.
   21   -1    0    0  501  502   0.0000000000E+00   0.0000000000E+00  -5.8700356170E+00   5.8700356170E+00   0.0000000000E+00     0.000  -1.
   25    2    1    2    0    0   0.0000000000E+00   0.0000000000E+00   6.5958589257E+02   6.7132596381E+02   1.2500000000E+02  8.574E-09  -1.
3000002    2    3    0    0    0  -4.5176653117E+01  -2.8398554809E+01   1.6349113549E+02   1.7226943805E+02   1.0000000000E+01  3.371E-10  -1.
3000002    2    3    0    0    0   4.5176653117E+01   2.8398554809E+01   4.9609475708E+02   4.9905652576E+02   1.0000000000E+01  1.806E-10  -1.
3000001    1    4    0    0    0  -8.6484361042E+00  -8.9081669478E+00   4.7663860454E+01   4.9264535711E+01   1.0000000000E+00     0.000  -1.
3000022   2   4   0   0   0   -3.6528217013E+01   -1.9490387861E+01   1.1582727504E+02   1.2300490234E+02   2.5000000000E-01   2.133502E+00   0.
3000001    1    5    0    0    0   4.3247380658E+01   2.4556413047E+01   4.4187951953E+02   4.4467051076E+02   1.0000000000E+00     0.000  -1.
3000022   2   5   0   0   0   1.9292724584E+00   3.8421417622E+00   5.4215237544E+01   5.4386014999E+01   2.5000000000E-01   5.262515E+00   0.
13    1    7    0    0    0  -1.0949602249E+01  -5.8015350173E+00   3.4750273865E+01   3.6893687219E+01   1.0500000000E-01     0.000  -1.
-13    1    7    0    0    0  -2.5578614764E+01  -1.3688852844E+01   8.1077001175E+01   8.6111215123E+01   1.0500000000E-01     0.000   1.
13    1    9    0    0    0   1.4894276912E+00   2.9333988490E+00   4.1416558158E+01   4.1547148378E+01   1.0500000000E-01     0.000  -1.
-13    1    9    0    0    0   4.3984476723E-01   9.0874291327E-01   1.2798679385E+01   1.2838866621E+01   1.0500000000E-01     0.000   1.
</event>
<event>
 13   1  9.2978750E-05  1.2500000E+02  7.5467720E-03  1.2380620E-01
   21   -1    0    0  502  501   0.0000000000E+00   0.0000000000E+00   1.4344502570E+01   1.4344502570E+01   0.0000000000E+00     0.000  -1.
   21   -1    0    0  501  502   0.0000000000E+00   0.0000000000E+00  -2.7231686709E+02   2.7231686709E+02   0.0000000000E+00     0.000  -1.
   25    2    1    2    0    0   0.0000000000E+00   0.0000000000E+00  -2.5797236452E+02   2.8666136966E+02   1.2500000000E+02  6.551E-09  -1.
3000002    2    3    0    0    0   2.1877680274E+01   5.0596756776E+01  -1.9252256498E+02   2.0050836071E+02   1.0000000000E+01  2.117E-11   1.
3000002    2    3    0    0    0  -2.1877680274E+01  -5.0596756776E+01  -6.5449799544E+01   8.6153008948E+01   1.0000000000E+01  1.899E-10   1.
3000001    1    4    0    0    0   1.6201797297E+01   2.8439741008E+01  -1.2492802227E+02   1.2914847213E+02   1.0000000000E+00     0.000   1.
3000022   2   4   0   0   0   5.6758829776E+00   2.2157015768E+01   -6.7594542704E+01   7.1359888584E+01   2.5000000000E-01   5.493312E+00   0.
3000001    1    5    0    0    0  -9.4130546544E-01  -8.9320206220E-01  -4.6561971199E-01   1.7031346451E+00   1.0000000000E+00     0.000   1.
3000022   2   5   0   0   0   -2.0936374809E+01   -4.9703554714E+01   -6.4984179832E+01   8.4449874303E+01   2.5000000000E-01   2.224703E+00   0.
13    1    7    0    0    0   2.4642594389E+00   9.5054518356E+00  -2.8836263542E+01   3.0462555856E+01   1.0500000000E-01     0.000   1.
-13    1    7    0    0    0   3.2116235387E+00   1.2651563933E+01  -3.8758279162E+01   4.0897332728E+01   1.0500000000E-01     0.000  -1.
13    1    9    0    0    0  -9.1036371420E+00  -2.1770787994E+01  -2.8395348995E+01   3.6920865220E+01   1.0500000000E-01     0.000  -1.
-13    1    9    0    0    0  -1.1832737667E+01  -2.7932766720E+01  -3.6588830837E+01   4.7529009083E+01   1.0500000000E-01     0.000   1.
</event>
<event>
 13   1  9.2978750E-05  1.2500000E+02  7.5467720E-03  1.2380620E-01
   21   -1    0    0  502  501   0.0000000000E+00   0.0000000000E+00   4.8198437115E+01   4.8198437115E+01   0.0000000000E+00     0.000   1.
   21   -1    0    0  501  502   0.0000000000E+00   0.0000000000E+00  -8.1045159009E+01   8.1045159009E+01   0.0000000000E+00     0.000   1.
   25    2    1    2    0    0   0.0000000000E+00   0.0000000000E+00  -3.2846721894E+01   1.2924359612E+02   1.2500000000E+02  7.145E-08  -1.
3000002    2    3    0    0    0  -4.4003697958E+01   3.9009424841E+01   2.8699496285E+00   5.9718483498E+01   1.0000000000E+01  1.675E-09  -1.
3000002    2    3    0    0    0   4.4003697958E+01  -3.9009424841E+01  -3.5716671523E+01   6.9525112622E+01   1.0000000000E+01  6.415E-11  -1.
3000001    1    4    0    0    0  -4.1593224629E+01   3.8794058950E+01   4.0198181357E+00   5.7027487081E+01   1.0000000000E+00     0.000  -1.
3000022   2   4   0   0   0   -2.4104733285E+00   2.1536589148E-01   -1.1498685072E+00   2.6909964174E+00   2.5000000000E-01   1.256745E+00   0.
3000001    1    5    0    0    0   3.8471591462E+01  -3.7673207038E+01  -3.3428230123E+01   6.3385964119E+01   1.0000000000E+00     0.000  -1.
3000022   2   5   0   0   0   5.5321064957E+00   -1.3362178031E+00   -2.2884414000E+00   6.1391485027E+00   2.5000000000E-01   8.175839E-02   0.
13    1    7    0    0    0  -1.1628210216E+00   5.6407007474E-02  -4.9942613946E-01   1.2711356920E+00   1.0500000000E-01     0.000  -1.
-13    1    7    0    0    0  -1.2476523069E+00   1.5895888401E-01  -6.5044236772E-01   1.4198607254E+00   1.0500000000E-01     0.000   1.
13    1    9    0    0    0   2.0371098871E+00  -4.7179362121E-01  -7.8119982004E-01   2.2346597217E+00   1.0500000000E-01     0.000  -1.
-13    1    9    0    0    0   3.4949966086E+00  -8.6442418193E-01  -1.5072415800E+00   3.9044887810E+00   1.0500000000E-01     0.000   1.
</event>
<event>
 13   1  9.2978750E-05  1.2500000E+02  7.5467720E-03  1.2380620E-01
   21   -1    0    0  502  501   0.0000000000E+00   0.0000000000E+00   2.3994072549E+01   2.3994072549E+01   0.0000000000E+00     0.000   1.
   21   -1    0    0  501  502   0.0000000000E+00   0.0000000000E+00  -1.6280062470E+02   1.6280062470E+02   0.0000000000E+00     0.000   1.
   25    2    1    2    0    0   0.0000000000E+00   0.0000000000E+00  -1.3880655215E+02   1.8679469725E+02   1.2500000000E+02  6.994E-08  -1.
3000002    2    3    0    0    0  -3.3683171986E+01  -1.3986394554E+01  -1.4376276581E+02   1.4865365162E+02   1.0000000000E+01  1.595E-10   1.
3000002    2    3    0    0    0   3.3683171986E+01   1.3986394554E+01   4.9562136602E+00   3.8141045626E+01   1.0000000000E+01  5.523E-10   1.
3000001    1    4    0    0    0  -7.8329267480E+00  -5.7606910848E+00  -5.4129414859E+01   5.5004853024E+01   1.0000000000E+00     0.000  -1.
3000022   2   4   0   0   0   -2.5850245238E+01   -8.2257034690E+00   -8.9633350952E+01   9.3648798600E+01   2.5000000000E-01   2.403857E-01   0.
3000001    1    5    0    0    0   2.2163060995E+01   4.6226333268E+00   5.3618859263E+00   2.3287761426E+01   1.0000000000E+00     0.000   1.
3000022   2   5   0   0   0   1.1520110991E+01   9.3637612271E+00   -4.0567226616E-01   1.4853284201E+01   2.5000000000E-01   1.633102E+00   0.
13    1    7    0    0    0  -1.1129701103E+01  -3.5025404381E+00  -3.8366338249E+01   4.0101433537E+01   1.0500000000E-01     0.000  -1.
-13    1    7    0    0    0  -1.4720544135E+01  -4.7231630310E+00  -5.1267012703E+01   5.3547365063E+01   1.0500000000E-01     0.000   1.
13    1    9    0    0    0   7.8043135575E+00   6.2771317048E+00  -2.8020378198E-01   1.0019941702E+01   1.0500000000E-01     0.000   1.
-13    1    9    0    0    0   3.7157974332E+00   3.0866295222E+00  -1.2546848418E-01   4.8333424990E+00   1.0500000000E-01     0.000  -1.
</event>
<event>
 13   1  9.2978750E-05  1.2500000E+02  7.5467720E-03  1.2380620E-01
   21   -1    0    0  502  501   0.0000000000E+00   0.0000000000E+00   1.5159435720E+01   1.5159435720E+01   0.0000000000E+00     0.000  -1.
   21   -1    0    0  501  502   0.0000000000E+00   0.0000000000E+00  -2.5767779699E+02   2.5767779699E+02   0.0000000000E+00     0.000  -1.
   25    2    1    2    0    0   0.0000000000E+00   0.0000000000E+00  -2.4251836127E+02   2.7283723271E+02   1.2500000000E+02  1.146E-09  -1.
3000002    2    3    0    0    0   1.7467431357E+01  -5.9162312087E+01  -1.1912094952E+02   1.3451799487E+02   1.0000000000E+01  1.091E-09  -1.
3000002    2    3    0    0    0  -1.7467431357E+01   5.9162312087E+01  -1.2339741175E+02   1.3831923784E+02   1.0000000000E+01  2.033E-10  -1.
3000001    1    4    0    0    0   1.7230637762E+00  -2.1110254131E+01  -3.6827208617E+01   4.2495353544E+01   1.0000000000E+00     0.000  -1.
3000022   2   4   0   0   0   1.5744367581E+01   -3.8052057956E+01   -8.2293740899E+01   9.2022641325E+01   2.5000000000E-01   3.334822E+00   0.
3000001    1    5    0    0    0  -1.1027799289E+01   4.7465031615E+01  -8.9990248236E+01   1.0234151827E+02   1.0000000000E+00     0.000  -1.
3000022   2   5   0   0   0   -6.4396320676E+00   1.1697280472E+01   -3.3407163518E+01   3.5977719576E+01   2.5000000000E-01   1.307582E+01   0.
13    1    7    0    0    0   6.7289830382E+00  -1.6238177954E+01  -3.4981396713E+01   3.9149288333E+01   1.0500000000E-01     0.000  -1.
-13    1    7    0    0    0   9.0153845424E+00  -2.1813880002E+01  -4.7312344187E+01   5.2873352992E+01   1.0500000000E-01     0.000   1.
13    1    9    0    0    0  -2.5119725657E+00   4.6137083024E+00  -1.3298630075E+01   1.4298982388E+01   1.0500000000E-01     0.000  -1.
-13    1    9    0    0    0  -3.9276595019E+00   7.0835721696E+00  -2.0108533443E+01   2.1678737188E+01   1.0500000000E-01     0.000   1.
</event>
<event>
 13   1  9.2978750E-05  1.2500000E+02  7.5467720E-03  1.2380620E-01
   21   -1    0    0  502  501   0.0000000000E+00   0.0000000000E+00   8.5096471367E+01   8.5096471367E+01   0.0000000000E+00     0.000   1.
   21   -1    0    0  501  502   0.0000000000E+00   0.0000000000E+00  -4.5903783521E+01   4.5903783521E+01   0.0000000000E+00     0.000   1.
   25    2    1    2    0    0   0.0000000000E+00   0.0000000000E+00   3.9192687846E+01   1.3100025489E+02   1.2500000000E+02  2.808E-09  -1.
3000002    2    3    0    0    0   5.6189144685E+01  -2.8160440163E+00   4.6131704143E+01   7.3438982914E+01   1.0000000000E+01  7.897E-10   1.
3000002    2    3    0    0    0  -5.6189144685E+01   2.8160440163E+00  -6.9390162968E+00   5.7561271976E+01   1.0000000000E+01  1.879E-10   1.
3000001    1    4    0    0    0   4.3494772340E+01  -4.5178601033E+00   3.9850686467E+01   5.9171644330E+01   1.0000000000E+00     0.000   1.
3000022   2   4   0   0   0   1.2694372345E+01   1.7018160870E+00   6.2810176756E+00   1.4267338584E+01   2.5000000000E-01   7.401190E+00   0.
3000001    1    5    0    0    0  -1.7787841925E+01  -3.6794892301E+00  -1.9858098543E+00   1.8299983664E+01   1.0000000000E+00     0.000  -1.
3000022   2   5   0   0   0   -3.8401302760E+01   6.4955332465E+00   -4.9532064425E+00   3.9261288312E+01   2.5000000000E-01   5.739021E-04   0.
13    1    7    0    0    0   8.1799908217E+00   1.1466609965E+00   4.0823179146E+00   9.2143054996E+00   1.0500000000E-01     0.000   1.
-13    1    7    0    0    0   4.5143815235E+00   5.5515509043E-01   2.1986997611E+00   5.0530330845E+00   1.0500000000E-01     0.000  -1.
13    1    9    0    0    0  -2.4767196004E+01   4.1895757457E+00  -3.1367899974E+00   2.5314363893E+01   1.0500000000E-01     0.000  -1.
-13    1    9    0    0    0  -1.3634106756E+01   2.3059575008E+00  -1.8164164451E+00   1.3946924418E+01   1.0500000000E-01     0.000   1.
</event>
<event>
 13   1  9.2978750E-05  1.2500000E+02  7.5467720E-03  1.2380620E-01
   21   -1    0    0  502  501   0.0000000000E+00   0.0000000000E+00   3.2595815795E+01   3.2595815795E+01   0.0000000000E+00     0.000  -1.
   21   -1    0    0  501  502   0.0000000000E+00   0.0000000000E+00  -1.1983900095E+02   1.1983900095E+02   0.0000000000E+00     0.000  -1.
   25    2    1    2    0    0   0.0000000000E+00   0.0000000000E+00  -8.7243185154E+01   1.5243481674E+02   1.2500000000E+02  7.976E-09  -1.
3000002    2    3    0    0    0   2.8432400768E+01  -5.4535880858E+01  -4.9556618739E+01   7.9614208375E+01   1.0000000000E+01  6.316E-10  -1.
3000002    2    3    0    0    0  -2.8432400768E+01   5.4535880858E+01  -3.7686566415E+01   7.2820608365E+01   1.0000000000E+01  4.782E-10  -1.
3000001    1    4    0    0    0   9.3368938039E+00  -9.3573174112E+00  -1.0148130941E+01   1.6694955425E+01   1.0000000000E+00     0.000   1.
3000022   2   4   0   0   0   1.9095506964E+01   -4.5178563447E+01   -3.9408487798E+01   6.2919252951E+01   2.5000000000E-01   1.029021E-02   0.
3000001    1    5    0    0    0  -1.3537906414E+01   3.5970489919E+01  -2.1708180317E+01   4.4151966522E+01   1.0000000000E+00     0.000  -1.
3000022   2   5   0   0   0   -1.4894494354E+01   1.8565390939E+01   -1.5978386098E+01   2.8668641843E+01   2.5000000000E-01   4.095519E+00   0.
13    1    7    0    0    0   7.3022234107E+00  -1.7122515843E+01  -1.4943480490E+01   2.3870937344E+01   1.0500000000E-01     0.000   1.
-13    1    7    0    0    0   1.1793283553E+01  -2.8056047604E+01  -2.4465007308E+01   3.9048315606E+01   1.0500000000E-01     0.000  -1.
13    1    9    0    0    0  -4.1216333797E+00   5.1821235455E+00  -4.4125058620E+00   7.9576063700E+00   1.0500000000E-01     0.000   1.
-13    1    9    0    0    0  -1.0772860975E+01   1.3383267394E+01  -1.1565880236E+01   2.0711035473E+01   1.0500000000E-01     0.000  -1.
</event>
<event>
 13   1  9.2978750E-05  1.2500000E+02  7.5467720E-03  1.2380620E-01
   21   -1    0    0  502  501   0.0000000000E+00   0.0000000000E+00   3.1995926117E+02   3.1995926117E+02   0.0000000000E+00     0.000  -1.
   21   -1    0    0  501  502   0.0000000000E+00   0.0000000000E+00  -1.2208585511E+01   1.2208585511E+01   0.0000000000E+00     0.000  -1.
   25    2    1    2    0    0   0.0000000000E+00   0.0000000000E+00   3.0775067566E+02   3.3216784668E+02   1.2500000000E+02  5.893E-09  -1.
3000002    2    3    0    0    0   3.5533680267E+01   5.0393128583E+01   1.5928233368E+02   1.7109345886E+02   1.0000000000E+01  8.212E-11   1.
3000002    2    3    0    0    0  -3.5533680267E+01  -5.0393128583E+01   1.4846834198E+02   1.6107438782E+02   1.0000000000E+01  3.120E-09   1.
3000001    1    4    0    0    0   4.4695607955E+00   1.3393368189E+01   3.5872797579E+01   3.8564451134E+01   1.0000000000E+00     0.000  -1.
3000022   2   4   0   0   0   3.1064119471E+01   3.6999760395E+01   1.2340953610E+02   1.3252900772E+02   2.5000000000E-01   2.141509E+00   0.
3000001    1    5    0    0    0  -1.0622843802E+01  -1.8200090220E+01   4.0063645374E+01   4.5278955102E+01   1.0000000000E+00     0.000   1.
3000022   2   5   0   0   0   -2.4910836465E+01   -3.2193038363E+01   1.0840469661E+02   1.1579543272E+02   2.5000000000E-01   1.175231E+01   0.
13    1    7    0    0    0   1.6894775927E+01   2.0160667864E+01   6.7020988540E+01   7.1997985473E+01   1.0500000000E-01     0.000  -1.
-13    1    7    0    0    0   1.4169343544E+01   1.6839092530E+01   5.6388547557E+01   6.0531022248E+01   1.0500000000E-01     0.000   1.
13    1    9    0    0    0  -8.6565719444E+00  -1.1243917354E+01   3.7917016525E+01   4.0485467546E+01   1.0500000000E-01     0.000   1.
-13    1    9    0    0    0  -1.6254264521E+01  -2.0949121009E+01   7.0487680085E+01   7.5309965176E+01   1.0500000000E-01     0.000  -1.
</event>
<event>
 13   1  9.2978750E-05  1.2500000E+02  7.5467720E-03  1.2380620E-01
   21   -1    0    0  502  501   0.0000000000E+00   0.0000000000E+00   1.3732837529E+02   1.3732837529E+02   0.0000000000E+00     0.000   1.
   21   -1    0    0  501  502   0.0000000000E+00   0.0000000000E+00  -2.8444594875E+01   2.8444594875E+01   0.0000000000E+00     0.000   1.
   25    2    1    2    0    0   0.0000000000E+00   0.0000000000E+00   1.0888378042E+02   1.6577297017E+02   1.2500000000E+02  4.846E-09  -1.
3000002    2    3    0    0    0  -4.6796828592E+01   3.3738206134E+01   8.3437747407E+01   1.0193168012E+02   1.0000000000E+01  1.875E-09   1.
3000002    2    3    0    0    0   4.6796828592E+01  -3.3738206134E+01   2.5446033013E+01   6.3841290052E+01   1.0000000000E+01  1.699E-10   1.
3000001    1    4    0    0    0  -1.9612637882E+01   1.4218222587E+01   2.6754149378E+01   3.6105372552E+01   1.0000000000E+00     0.000  -1.
3000022   2   4   0   0   0   -2.7184190710E+01   1.9519983547E+01   5.6683598029E+01   6.5826307566E+01   2.5000000000E-01   1.802996E+00   0.
3000001    1    5    0    0    0   2.4131705217E+01  -1.2269228672E+01   1.4714341364E+01   3.0828315080E+01   1.0000000000E+00     0.000  -1.
3000022   2   5   0   0   0   2.2665123375E+01   -2.1468977462E+01   1.0731691649E+01   3.3012974972E+01   2.5000000000E-01   1.254583E+00   0.
13    1    7    0    0    0  -1.9264831545E+01   1.3839834072E+01   4.0091568650E+01   4.6583469637E+01   1.0500000000E-01     0.000   1.
-13    1    7    0    0    0  -7.9193591654E+00   5.6801494751E+00   1.6592029379E+01   1.9242837929E+01   1.0500000000E-01     0.000  -1.
13    1    9    0    0    0   1.3066523847E+01  -1.2454664700E+01   6.1711816105E+00   1.9077400916E+01   1.0500000000E-01     0.000  -1.
-13    1    9    0    0    0   9.5985995280E+00  -9.0143127618E+00   4.5605100380E+00   1.3935574056E+01   1.0500000000E-01     0.000   1.
</event>
<event>
 13   1  9.2978750E-05  1.2500000E+02  7.5467720E-03  1.2380620E-01
   21   -1    0    0  502  501   0.0000000000E+00   0.0000000000E+00   3.3540481376E+01   3.3540481376E+01   0.0000000000E+00     0.000   1.
   21   -1    0    0  501  502   0.0000000000E+00   0.0000000000E+00  -1.1646374291E+02   1.1646374291E+02   0.0000000000E+00     0.000   1.
   25    2    1    2    0    0   0.0000000000E+00   0.0000000000E+00  -8.2923261532E+01   1.5000422428E+02   1.2500000000E+02  3.414E-08  -1.
3000002    2    3    0    0    0  -2.1327068057E+01   5.5954931271E+01  -2.3643984415E+01   6.5152407204E+01   1.0000000000E+01  3.852E-09   1.
3000002    2    3    0    0    0   2.1327068057E+01  -5.5954931271E+01  -5.9279277117E+01   8.4851817076E+01   1.0000000000E+01  1.654E-09   1.
3000001    1    4    0    0    0  -1.2383625256E+01   3.7383048000E+01  -1.0736810259E+01   4.0830448770E+01   1.0000000000E+00     0.000   1.
3000022   2   4   0   0   0   -8.9434428008E+00   1.8571883272E+01   -1.2907174155E+01   2.4321958434E+01   2.5000000000E-01   1.172931E+01   0.
3000001    1    5    0    0    0   6.7738280515E+00  -1.7030608180E+01  -1.2123857910E+01   2.1998052007E+01   1.0000000000E+00     0.000  -1.
3000022   2   5   0   0   0   1.4553240006E+01   -3.8924323091E+01   -4.7155419207E+01   6.2853765069E+01   2.5000000000E-01   2.384068E+00   0.
13    1    7    0    0    0  -2.1420164802E+00   4.4551140961E+00  -3.0734166205E+00   5.8217858887E+00   1.0500000000E-01     0.000  -1.
-13    1    7    0    0    0  -6.8014263206E+00   1.4116769176E+01  -9.8337575346E+00   1.8500172545E+01   1.0500000000E-01     0.000   1.
13    1    9    0    0    0   4.4964883997E+00  -1.1911116964E+01  -1.4409460641E+01   1.9228538588E+01   1.0500000000E-01     0.000  -1.
-13    1    9    0    0    0   1.0056751606E+01  -2.7013206127E+01  -3.2745958566E+01   4.3625226482E+01   1.0500000000E-01     0.000   1.
</event>
<event>
 13   1  9.2978750E-05  1.2500000E+02  7.5467720E-03  1.2380620E-01
   21   -1    0    0  502  501   0.0000000000E+00   0.0000000000E+00   8.7713571158E+00   8.7713571158E+00   0.0000000000E+00     0.000   1.
   21   -1    0    0  501  502   0.0000000000E+00   0.0000000000E+00  -4.4534157581E+02   4.4534157581E+02   0.0000000000E+00     0.000   1.
   25    2    1    2    0    0   0.0000000000E+00   0.0000000000E+00  -4.3657021870E+02   4.5411293293E+02   1.2500000000E+02  1.271E-08  -1.
3000002    2    3    0    0    0   5.1052027206E+01   2.6109257748E+01  -1.3558190620E+02   1.4754814845E+02   1.0000000000E+01  9.490E-12  -1.
3000002    2    3    0    0    0  -5.1052027206E+01  -2.6109257748E+01  -3.0098831250E+02   3.0656478448E+02   1.0000000000E+01  1.597E-09  -1.
3000001    1    4    0    0    0   7.4404179784E-01   1.5051391674E+00  -7.6448914206E+00   7.8907165038E+00   1.0000000000E+00     0.000   1.
3000022   2   4   0   0   0   5.0307985408E+01   2.4604118581E+01   -1.2793701478E+02   1.3965743194E+02   2.5000000000E-01   1.279686E+00   0.
3000001    1    5    0    0    0  -2.6701532878E+01  -1.8804039942E+01  -1.7850851904E+02   1.8147411701E+02   1.0000000000E+00     0.000   1.
3000022   2   5   0   0   0   -2.4350494328E+01   -7.3052178064E+00   -1.2247979346E+02   1.2509066747E+02   2.5000000000E-01   3.970777E+00   0.
13    1    7    0    0    0   2.2962149676E+01   1.1167732907E+01  -5.8240708423E+01   6.3592214292E+01   1.0500000000E-01     0.000  -1.
-13    1    7    0    0    0   2.7345835732E+01   1.3436385674E+01  -6.9696306356E+01   7.6065217652E+01   1.0500000000E-01     0.000   1.
13    1    9    0    0    0  -1.6383170015E+01  -4.9253525873E+00  -8.2669948269E+01   8.4421553703E+01   1.0500000000E-01     0.000  -1.
-13    1    9    0    0    0  -7.9673243134E+00  -2.3798652191E+00  -3.9809845196E+01   4.0669113769E+01   1.0500000000E-01     0.000   1.
</event>
<event>
 13   1  9.2978750E-05  1.2500000E+02  7.5467720E-03  1.2380620E-01
   21   -1    0    0  502  501   0.0000000000E+00   0.0000000000E+00   5.1968750456E+02   5.1968750456E+02   0.0000000000E+00     0.000   1.
   21   -1    0    0  501  502   0.0000000000E+00   0.0000000000E+00  -7.5165363141E+00   7.5165363141E+00   0.0000000000E+00     0.000   1.
   25    2    1    2    0    0   0.0000000000E+00   0.0000000000E+00   5.1217096824E+02   5.2720404087E+02   1.2500000000E+02  2.473E-08  -1.
3000002    2    3    0    0    0   1.7406712764E+01   5.5972072245E+01   3.3725529257E+02   3.4245729499E+02   1.0000000000E+01  1.384E-10  -1.
3000002    2    3    0    0    0  -1.7406712764E+01  -5.5972072245E+01   1.7491567567E+02   1.8474674588E+02   1.0000000000E+01  8.178E-10  -1.
3000001    1    4    0    0    0   3.6036120060E+00   2.2151552529E+01   1.0821431062E+02   1.1052155592E+02   1.0000000000E+00     0.000  -1.
3000022   2   4   0   0   0   1.3803100758E+01   3.3820519716E+01   2.2904098195E+02   2.3193573907E+02   2.5000000000E-01   2.940879E+00   0.
3000001    1    5    0    0    0  -1.0062208946E+01  -3.6817964404E+01   1.2722126738E+02   1.3282718632E+02   1.0000000000E+00     0.000  -1.
3000022   2   5   0   0   0   -7.3445038178E+00   -1.9154107841E+01   4.7694408283E+01   5.1919559561E+01   2.5000000000E-01   1.880584E+00   0.
13    1    7    0    0    0   1.0307263807E+01   2.5181944057E+01   1.7066680315E+02   1.7282227494E+02   1.0500000000E-01     0.000   1.
-13    1    7    0    0    0   3.4958369509E+00   8.6385756594E+00   5.8374178805E+01   5.9113464131E+01   1.0500000000E-01     0.000  -1.
13    1    9    0    0    0  -4.8209172812E+00  -1.2415649023E+01   3.0981591324E+01   3.3723279942E+01   1.0500000000E-01     0.000  -1.
-13    1    9    0    0    0  -2.5235865366E+00  -6.7384588178E+00   1.6712816959E+01   1.8196279618E+01   1.0500000000E-01     0.000   1.
</event>
<event>
 13   1  9.2978750E-05  1.2500000E+02  7.5467720E-03  1.2380620E-01
   21   -1    0    0  502  501   0.0000000000E+00   0.0000000000E+00   9.1521796648E+00   9.1521796648E+00   0.0000000000E+00     0.000  -1.
   21   -1    0    0  501  502   0.0000000000E+00   0.0000000000E+00  -4.2681089566E+02   4.2681089566E+02   0.0000000000E+00     0.000  -1.
   25    2    1    2    0    0   0.0000000000E+00   0.0000000000E+00  -4.1765871600E+02   4.3596307533E+02   1.2500000000E+02  1.119E-08  -1.
3000002    2    3    0    0    0  -2.5490889196E+01  -5.3496417938E+01  -1.4896691030E+02   1.6063247657E+02   1.0000000000E+01  1.057E-09  -1.
3000002    2    3    0    0    0   2.5490889196E+01   5.3496417938E+01  -2.6869180570E+02   2.7533059876E+02   1.0000000000E+01  1.436E-10  -1.
3000001    1    4    0    0    0  -2.4249684990E+00  -2.8338950125E+00  -5.2970724855E+00   6.5551819258E+00   1.0000000000E+00     0.000  -1.
3000022   2   4   0   0   0   -2.3065920697E+01   -5.0662522925E+01   -1.4366983782E+02   1.5407729465E+02   2.5000000000E-01   3.580352E+00   0.
3000001    1    5    0    0    0  -6.6960340670E-01   2.0453878426E+00  -1.1201094432E+01   1.1449737841E+01   1.0000000000E+00     0.000   1.
3000022   2   5   0   0   0   2.6160492602E+01   5.1451030095E+01   -2.5749071126E+02   2.6388086092E+02   2.5000000000E-01   9.059155E+00   0.
13    1    7    0    0    0  -1.1934496073E+01  -2.6283783477E+01  -7.4670569932E+01   8.0056071033E+01   1.0500000000E-01     0.000  -1.
-13    1    7    0    0    0  -1.1131424623E+01  -2.4378739449E+01  -6.8999267887E+01   7.4021223613E+01   1.0500000000E-01     0.000   1.
13    1    9    0    0    0   1.3067665309E+01   2.5669198621E+01  -1.2819289191E+02   1.3138911749E+02   1.0500000000E-01     0.000   1.
-13    1    9    0    0    0   1.3092827294E+01   2.5781831474E+01  -1.2929781935E+02   1.3249174342E+02   1.0500000000E-01     0.000  -1.
</event>
<event>
 13   1  9.2978750E-05  1.2500000E+02  7.5467720E-03  1.2380620E-01
   21   -1    0    0  502  501   0.0000000000E+00   0.0000000000E+00   1.4683964788E+01   1.4683964788E+01   0.0000000000E+00     0.000   1.
   21   -1    0    0  501  502   0.0000000000E+00   0.0000000000E+00  -2.6602147692E+02   2.6602147692E+02   0.0000000000E+00     0.000   1.
   25    2    1    2    0    0   0.0000000000E+00   0.0000000000E+00  -2.5133751213E+02   2.8070544170E+02   1.2500000000E+02  5.073E-08  -1.
3000002    2    3    0    0    0   2.8357720333E+01   3.1665033898E+01  -2.2608230742E+02   2.3026081821E+02   1.0000000000E+01  2.464E-10  -1.
3000002    2    3    0    0    0  -2.8357720333E+01  -3.1665033898E+01  -2.5255204713E+01   5.0444623494E+01   1.0000000000E+01  1.695E-11  -1.
3000001    1    4    0    0    0   1.0096792513E+01   1.7898706626E+01  -1.1873019632E+02   1.2049966156E+02   1.0000000000E+00     0.000   1.
3000022   2   4   0   0   0   1.8260927820E+01   1.3766327273E+01   -1.0735211110E+02   1.0976115665E+02   2.5000000000E-01   3.186681E+00   0.
3000001    1    5    0    0    0  -6.2231486703E+00  -1.9361320946E+00  -3.4563891591E+00   7.4446499501E+00   1.0000000000E+00     0.000   1.
3000022   2   5   0   0   0   -2.2134571663E+01   -2.9728901804E+01   -2.1798815554E+01   4.2999973543E+01   2.5000000000E-01   2.441535E+00   0.
13    1    7    0    0    0   1.2954108582E+01   9.7987750649E+00  -7.6083271563E+01   7.7797815899E+01   1.0500000000E-01     0.000  -1.
-13    1    7    0    0    0   5.3068192384E+00   3.9675522080E+00  -3.1268839533E+01   3.1963340747E+01   1.0500000000E-01     0.000   1.
13    1    9    0    0    0  -1.1482858564E+01  -1.5505582731E+01  -1.1294409084E+01   2.2357411259E+01   1.0500000000E-01     0.000  -1.
-13    1    9    0    0    0  -1.0651713099E+01  -1.4223319073E+01  -1.0504406470E+01   2.0642562285E+01   1.0500000000E-01     0.000   1.
</event>
<event>
 13   1  9.2978750E-05  1.2500000E+02  7.5467720E-03  1.2380620E-01
   21   -1    0    0  502  501   0.0000000000E+00   0.0000000000E+00   2.5479398346E+02   2.5479398346E+02   0.0000000000E+00     0.000  -1.
   21   -1    0    0  501  502   0.0000000000E+00   0.0000000000E+00  -1.5331013500E+01   1.5331013500E+01   0.0000000000E+00     0.000  -1.
   25    2    1    2    0    0   0.0000000000E+00   0.0000000000E+00   2.3946296996E+02   2.7012499696E+02   1.2500000000E+02  2.434E-08  -1.
3000002    2    3    0    0    0   2.8434348285E+01  -4.9620013435E+01   1.6974321120E+02   1.7939736800E+02   1.0000000000E+01  9.020E-13  -1.
3000002    2    3    0    0    0  -2.8434348285E+01   4.9620013435E+01   6.9719758759E+01   9.0727628962E+01   1.0000000000E+01  1.342E-09  -1.
3000001    1    4    0    0    0   2.2081019736E+01  -3.1813375027E+01   1.2367193256E+02   1.2959710324E+02   1.0000000000E+00     0.000   1.
3000022   2   4   0   0   0   6.3533285497E+00   -1.7806638408E+01   4.6071278638E+01   4.9800264762E+01   2.5000000000E-01   5.356854E-01   0.
3000001    1    5    0    0    0  -1.7854006203E+00   1.0315967199E+01   1.1185390493E+01   1.5353168895E+01   1.0000000000E+00     0.000  -1.
3000022   2   5   0   0   0   -2.6648947665E+01   3.9304046236E+01   5.8534368266E+01   7.5374460068E+01   2.5000000000E-01   2.384870E+00   0.
13    1    7    0    0    0   4.0343949328E+00  -1.1128605094E+01   2.8843141114E+01   3.1177876903E+01   1.0500000000E-01     0.000   1.
-13    1    7    0    0    0   2.3189336169E+00  -6.6780333135E+00   1.7228137524E+01   1.8622387860E+01   1.0500000000E-01     0.000  -1.
13    1    9    0    0    0  -1.3458770571E+01   1.9754027408E+01   2.9398843105E+01   3.7890145223E+01   1.0500000000E-01     0.000  -1.
-13    1    9    0    0    0  -1.3190177094E+01   1.9550018828E+01   2.9135525161E+01   3.7484314844E+01   1.0500000000E-01     0.000   1.
</event>
<event>
 13   1  9.2978750E-05  1.2500000E+02  7.5467720E-03  1.2380620E-01
   21   -1    0    0  502  501   0.0000000000E+00   0.0000000000E+00   3.9117349670E+01   3.9117349670E+01   0.0000000000E+00     0.000   1.
   21   -1    0    0  501  502   0.0000000000E+00   0.0000000000E+00  -9.9859781733E+01   9.9859781733E+01   0.0000000000E+00     0.000   1.
   25    2    1    2    0    0   0.0000000000E+00   0.0000000000E+00  -6.0742432064E+01   1.3897713140E+02   1.2500000000E+02  2.632E-08  -1.
3000002    2    3    0    0    0   2.9140992740E+01  -4.5789715738E+01  -6.2982811098E+01   8.3742044512E+01   1.0000000000E+01  7.917E-10   1.
3000002    2    3    0    0    0  -2.9140992740E+01   4.5789715738E+01   2.2403790344E+00   5.5235086888E+01   1.0000000000E+01  1.797E-10   1.
3000001    1    4    0    0    0   2.1583025483E+01  -3.6947696156E+01  -4.3341754741E+01   6.0913602292E+01   1.0000000000E+00     0.000  -1.
3000022   2   4   0   0   0   7.5579672567E+00   -8.8420195828E+00   -1.9641056358E+01   2.2828442220E+01   2.5000000000E-01   1.572255E+00   0.
3000001    1    5    0    0    0  -8.5535643133E+00   6.8248654564E+00   1.9746351635E+00   1.1164292857E+01   1.0000000000E+00     0.000  -1.
3000022   2   5   0   0   0   -2.0587428426E+01   3.8964850282E+01   2.6574387091E-01   4.4070794031E+01   2.5000000000E-01   7.496649E+00   0.
13    1    7    0    0    0   2.9821703965E+00  -3.4315584721E+00  -7.5797863810E+00   8.8392941122E+00   1.0500000000E-01     0.000   1.
-13    1    7    0    0    0   4.5757968602E+00  -5.4104611107E+00  -1.2061269977E+01   1.3989148108E+01   1.0500000000E-01     0.000  -1.
13    1    9    0    0    0  -4.7157180927E+00   8.9340945859E+00   5.9981151404E-02   1.0103002818E+01   1.0500000000E-01     0.000   1.
-13    1    9    0    0    0  -1.5871710334E+01   3.0030755696E+01   2.0576271951E-01   3.3967791213E+01   1.0500000000E-01     0.000  -1.
</event>
<event>
 13   1  9.2978750E-05  1.2500000E+02  7.5467720E-03  1.2380620E-01
   21   -1    0    0  502  501   0.0000000000E+00   0.0000000000E+00   6.5734034874E+02   6.5734034874E+02   0.0000000000E+00     0.000   1.
   21   -1    0    0  501  502   0.0000000000E+00   0.0000000000E+00  -5.9425075723E+00   5.9425075723E+00   0.0000000000E+00     0.000   1.
   25    2    1    2    0    0   0.0000000000E+00   0.0000000000E+00   6.5139784117E+02   6.6328285632E+02   1.2500000000E+02  7.360E-09  -1.
3000002    2    3    0    0    0   3.9057896721E+01  -3.4605418503E+01   1.5105952242E+02   1.6013130112E+02   1.0000000000E+01  4.259E-10  -1.
3000002    2    3    0    0    0  -3.9057896721E+01   3.4605418503E+01   5.0033831875E+02   5.0315155520E+02   1.0000000000E+01  8.789E-11  -1.
3000001    1    4    0    0    0   3.7756565003E+01  -3.5243449451E+01   1.4660949118E+02   1.5544452977E+02   1.0000000000E+00     0.000  -1.
3000022   2   4   0   0   0   1.3013317187E+00   6.3803094821E-01   4.4500312345E+00   4.6867713536E+00   2.5000000000E-01   2.874813E+00   0.
3000001    1    5    0    0    0  -1.3156942069E+01   1.0404079585E+01   2.0653486692E+02   2.0721728029E+02   1.0000000000E+00     0.000   1.
3000022   2   5   0   0   0   -2.5900954653E+01   2.4201338918E+01   2.9380345183E+02   2.9593427490E+02   2.5000000000E-01   1.840011E+01   0.
13    1    7    0    0    0   8.1550946692E-01   3.3042529561E-01   2.6613968599E+00   2.8050480945E+00   1.0500000000E-01     0.000   1.
-13    1    7    0    0    0   4.8582225178E-01   3.0760565260E-01   1.7886343746E+00   1.8817232591E+00   1.0500000000E-01     0.000  -1.
13    1    9    0    0    0  -1.3682741807E+01   1.2713945511E+01   1.5444542193E+02   1.5557075950E+02   1.0500000000E-01     0.000   1.
-13    1    9    0    0    0  -1.2218212845E+01   1.1487393407E+01   1.3935802990E+02   1.4036351540E+02   1.0500000000E-01     0.000  -1.
</event>
<event>
 13   1  9.2978750E-05  1.2500000E+02  7.5467720E-03  1.2380620E-01
   21   -1    0    0  502  501   0.0000000000E+00   0.0000000000E+00   1.5731454808E+01   1.5731454808E+01   0.0000000000E+00     0.000   1.
   21   -1    0    0  501  502   0.0000000000E+00   0.0000000000E+00  -2.4830824916E+02   2.4830824916E+02   0.0000000000E+00     0.000   1.
   25    2    1    2    0    0   0.0000000000E+00   0.0000000000E+00  -2.3257679435E+02   2.6403970397E+02   1.2500000000E+02  2.152E-07  -1.
3000002    2    3    0    0    0   1.5802839114E+01   5.2750463610E+01  -1.7505142092E+02   1.8378068751E+02   1.0000000000E+01  5.336E-11  -1.
3000002    2    3    0    0    0  -1.5802839114E+01  -5.2750463610E+01  -5.7525373432E+01   8.0259016463E+01   1.0000000000E+01  1.084E-09  -1.
3000001    1    4    0    0    0   7.7132647608E+00   3.1842988962E+01  -8.8587584827E+01   9.4457559701E+01   1.0000000000E+00     0.000  -1.
3000022   2   4   0   0   0   8.0895743528E+00   2.0907474649E+01   -8.6463836091E+01   8.9323127806E+01   2.5000000000E-01   1.631712E+00   0.
3000001    1    5    0    0    0  -8.3383462794E+00  -1.7583878255E+01  -2.5646960985E+01   3.2210051240E+01   1.0000000000E+00     0.000  -1.
3000022   2   5   0   0   0   -7.4644928342E+00   -3.5166585355E+01   -3.1878412448E+01   4.8048965223E+01   2.5000000000E-01   8.918345E-01   0.
13    1    7    0    0    0   3.2776519176E+00   8.4105824536E+00  -3.4579222572E+01   3.5738138703E+01   1.0500000000E-01     0.000  -1.
-13    1    7    0    0    0   4.8119224353E+00   1.2496892195E+01  -5.1884613519E+01   5.3584989102E+01   1.0500000000E-01     0.000   1.
13    1    9    0    0    0  -5.3668391181E+00  -2.5301162945E+01  -2.2987521747E+01   3.4603308939E+01   1.0500000000E-01     0.000  -1.
-13    1    9    0    0    0  -2.0976537162E+00  -9.8654224101E+00  -8.8908907009E+00   1.3445656284E+01   1.0500000000E-01     0.000   1.
</event>
<event>
 13   1  9.2978750E-05  1.2500000E+02  7.5467720E-03  1.2380620E-01
   21   -1    0    0  502  501   0.0000000000E+00   0.0000000000E+00   5.0751767902E+01   5.0751767902E+01   0.0000000000E+00     0.000   1.
   21   -1    0    0  501  502   0.0000000000E+00   0.0000000000E+00  -7.6967762139E+01   7.6967762139E+01   0.0000000000E+00     0.000   1.
   25    2    1    2    0    0   0.0000000000E+00   0.0000000000E+00  -2.6215994237E+01   1.2771953004E+02   1.2500000000E+02  1.012E-07  -1.
3000002    2    3    0    0    0  -4.4170751091E+01   9.8450904804E+00  -5.5951991251E+01   7.2654018357E+01   1.0000000000E+01  3.021E-10   1.
3000002    2    3    0    0    0   4.4170751091E+01  -9.8450904804E+00   2.9735997014E+01   5.5065511683E+01   1.0000000000E+01  6.748E-10   1.
3000001    1    4    0    0    0  -4.0818468507E+01   9.5097400781E+00  -5.4976870023E+01   6.9137824417E+01   1.0000000000E+00     0.000   1.
3000022   2   4   0   0   0   -3.3522825836E+00   3.3535040225E-01   -9.7512122773E-01   3.5161939397E+00   2.5000000000E-01   3.598315E+00   0.
3000001    1    5    0    0    0   2.5253577673E+01  -4.8196150593E+00   2.2553418731E+01   3.4214449741E+01   1.0000000000E+00     0.000  -1.
3000022   2   5   0   0   0   1.8917173418E+01   -5.0254754211E+00   7.1825782830E+00   2.0851061942E+01   2.5000000000E-01   1.029907E+00   0.
13    1    7    0    0    0  -2.4353703687E+00   2.6065579620E-01  -6.7300327033E-01   2.5422290767E+00   1.0500000000E-01     0.000   1.
-13    1    7    0    0    0  -9.1691221496E-01   7.4694606050E-02  -3.0211795739E-01   9.7396486297E-01   1.0500000000E-01     0.000  -1.
13    1    9    0    0    0   8.6089001240E+00  -2.2251753556E+00   3.2948151006E+00   9.4832166618E+00   1.0500000000E-01     0.000  -1.
-13    1    9    0    0    0   1.0308273294E+01  -2.8003000655E+00   3.8877631824E+00   1.1367845280E+01   1.0500000000E-01     0.000   1.
</event>
<event>
 13   1  9.2978750E-05  1.2500000E+02  7.5467720E-03  1.2380620E-01
   21   -1    0    0  502  501   0.0000000000E+00   0.0000000000E+00   7.0499480247E+00   7.0499480247E+00   0.0000000000E+00     0.000   1.
   21   -1    0    0  501  502   0.0000000000E+00   0.0000000000E+00  -5.5408209909E+02   5.5408209909E+02   0.0000000000E+00     0.000   1.
   25    2    1    2    0    0   0.0000000000E+00   0.0000000000E+00  -5.4703215106E+02   5.6113204711E+02   1.2500000000E+02  9.967E-08  -1.
3000002    2    3    0    0    0  -5.3730980047E+01  -3.3945477424E+00  -1.3826885787E+02   1.4871724253E+02   1.0000000000E+01  5.406E-10  -1.
3000002    2    3    0    0    0   5.3730980047E+01   3.3945477424E+00  -4.0876329319E+02   4.1241480458E+02   1.0000000000E+01  2.497E-10  -1.
3000001    1    4    0    0    0  -3.0679996315E+00   1.5590352838E-01  -3.8629034655E+00   5.0357671544E+00   1.0000000000E+00     0.000   1.
3000022   2   4   0   0   0   -5.0662980415E+01   -3.5504512708E+00   -1.3440595440E+02   1.4368147538E+02   2.5000000000E-01   5.322178E+00   0.
3000001    1    5    0    0    0   4.6044730439E+01   4.8496091423E+00  -3.2433806051E+02   3.2762755288E+02   1.0000000000E+00     0.000  -1.
3000022   2   5   0   0   0   7.6862496082E+00   -1.4550613999E+00   -8.4425232680E+01   8.4787251694E+01   2.5000000000E-01   1.366863E+01   0.
13    1    7    0    0    0  -3.5147362301E+01  -2.4171375784E+00  -9.3269588865E+01   9.9701589069E+01   1.0500000000E-01     0.000   1.
-13    1    7    0    0    0  -1.5515618114E+01  -1.1333136924E+00  -4.1136365535E+01   4.3979886310E+01   1.0500000000E-01     0.000  -1.
13    1    9    0    0    0   5.1647132171E+00  -9.2992762655E-01  -5.6877671990E+01   5.7119345445E+01   1.0500000000E-01     0.000   1.
-13    1    9    0    0    0   2.5215363911E+00  -5.2513377331E-01  -2.7547560689E+01   2.7667906249E+01   1.0500000000E-01     0.000  -1.
</event>
<event>
 13   1  9.2978750E-05  1.2500000E+02  7.5467720E-03  1.2380620E-01
   21   -1    0    0  502  501   0.0000000000E+00   0.0000000000E+00   1.3650993127E+02   1.3650993127E+02   0.0000000000E+00     0.000   1.
   21   -1    0    0  501  502   0.0000000000E+00   0.0000000000E+00  -2.8615134179E+01   2.8615134179E+01   0.0000000000E+00     0.000   1.
   25    2    1    2    0    0   0.0000000000E+00   0.0000000000E+00   1.0789479709E+02   1.6512506545E+02   1.2500000000E+02  3.303E-09  -1.
3000002    2    3    0    0    0  -4.6244935132E+01   3.8963818297E+01   7.0098046170E+01   9.3115569259E+01   1.0000000000E+01  1.202E-10  -1.
3000002    2    3    0    0    0   4.6244935132E+01  -3.8963818297E+01   3.7796750920E+01   7.2009496191E+01   1.0000000000E+01  2.870E-10  -1.
3000001    1    4    0    0    0  -4.1303552583E+01   3.0971891218E+01   6.2188172267E+01   8.0830750779E+01   1.0000000000E+00     0.000  -1.
3000022   2   4   0   0   0   -4.9413825480E+00   7.9919270787E+00   7.9098739029E+00   1.2284818480E+01   2.5000000000E-01   2.238344E+00   0.
3000001    1    5    0    0    0   5.3198313601E+00  -5.7256239520E+00   8.9007924410E+00   1.1887282339E+01   1.0000000000E+00     0.000   1.
3000022   2   5   0   0   0   4.0925103771E+01   -3.3238194345E+01   2.8895958479E+01   6.0122213852E+01   2.5000000000E-01   2.829902E+00   0.
13    1    7    0    0    0  -1.3755185426E+00   2.3035550332E+00   2.2562073472E+00   3.5071232721E+00   1.0500000000E-01     0.000   1.
-13    1    7    0    0    0  -3.5658640055E+00   5.6883720455E+00   5.6536665556E+00   8.7776952075E+00   1.0500000000E-01     0.000  -1.
13    1    9    0    0    0   2.0594499634E+01  -1.6648147274E+01   1.4479505682E+01   3.0182135985E+01   1.0500000000E-01     0.000   1.
-13    1    9    0    0    0   2.0330604138E+01  -1.6590047071E+01   1.4416452797E+01   2.9940077867E+01   1.0500000000E-01     0.000  -1.
</event>
<event>
 13   1  9.2978750E-05  1.2500000E+02  7.5467720E-03  1.2380620E-01
   21   -1    0    0  502  501   0.0000000000E+00   0.0000000000E+00   5.5019970138E+01   5.5019970138E+01   0.0000000000E+00     0.000  -1.
   21   -1    0    0  501  502   0.0000000000E+00   0.0000000000E+00  -7.0996948747E+01   7.0996948747E+01   0.0000000000E+00     0.000  -1.
   25    2    1    2    0    0   0.0000000000E+00   0.0000000000E+00  -1.5976978609E+01   1.2601691889E+02   1.2500000000E+02  3.795E-09  -1.
3000002    2    3    0    0    0   2.4737497199E+01  -5.0944034410E+01   1.6685334372E+01   5.9880203679E+01   1.0000000000E+01  9.741E-11  -1.
3000002    2    3    0    0    0  -2.4737497199E+01   5.0944034410E+01  -3.2662312981E+01   6.6136715211E+01   1.0000000000E+01  7.883E-10  -1.
3000001    1    4    0    0    0   1.3712961215E+01  -1.7394249421E+01   7.2211229146E+00   2.3318444081E+01   1.0000000000E+00     0.000  -1.
3000022   2   4   0   0   0   1.1024535984E+01   -3.3549784988E+01   9.4642114574E+00   3.6561759598E+01   2.5000000000E-01   2.036097E+00   0.
3000001    1    5    0    0    0  -8.6816390035E+00   1.4128026739E+01  -4.9340019088E+00   1.7329638489E+01   1.0000000000E+00     0.000   1.
3000022   2   5   0   0   0   -1.6055858195E+01   3.6816007670E+01   -2.7728311072E+01   4.8807076721E+01   2.5000000000E-01   1.803626E+01   0.
13    1    7    0    0    0   6.4057824964E+00  -1.9338268643E+01   5.5041922680E+00   2.1102365768E+01   1.0500000000E-01     0.000  -1.
-13    1    7    0    0    0   4.6187534873E+00  -1.4211516345E+01   3.9600191894E+00   1.5459393830E+01   1.0500000000E-01     0.000   1.
13    1    9    0    0    0  -8.0070381342E+00   1.8438195762E+01  -1.3950660863E+01   2.4468585700E+01   1.0500000000E-01     0.000  -1.
-13    1    9    0    0    0  -8.0488200611E+00   1.8377811908E+01  -1.3777650209E+01   2.4338491021E+01   1.0500000000E-01     0.000   1.
</event>
<event>
 13   1  9.2978750E-05  1.2500000E+02  7.5467720E-03  1.2380620E-01
   21   -1    0    0  502  501   0.0000000000E+00   0.0000000000E+00   8.1498043033E+02   8.1498043033E+02   0.0000000000E+00     0.000   1.
   21   -1    0    0  501  502   0.0000000000E+00   0.0000000000E+00  -4.7930598756E+00   4.7930598756E+00   0.0000000000E+00     0.000   1.
   25    2    1    2    0    0   0.0000000000E+00   0.0000000000E+00   8.1018737045E+02   8.1977349020E+02   1.2500000000E+02  5.164E-10  -1.
3000002    2    3    0    0    0   4.7682179340E+01   8.4993370655E+00   6.5571782420E+02   6.5758018061E+02   1.0000000000E+01  1.006E-09  -1.
3000002    2    3    0    0    0  -4.7682179340E+01  -8.4993370655E+00   1.5446954625E+02   1.6219330959E+02   1.0000000000E+01  3.596E-11  -1.
3000001    1    4    0    0    0   2.8668913113E+01   9.3826224933E+00   4.3279353981E+02   4.3384465917E+02   1.0000000000E+00     0.000   1.
3000022   2   4   0   0   0   1.9013266227E+01   -8.8328542782E-01   2.2292428438E+02   2.2373552144E+02   2.5000000000E-01   6.060403E-01   0.
3000001    1    5    0    0    0  -1.3534006135E+01   3.7884509322E-01   5.5008154606E+01   5.6658714412E+01   1.0000000000E+00     0.000   1.
3000022   2   5   0   0   0   -3.4148173205E+01   -8.8781821587E+00   9.9461391646E+01   1.0553459518E+02   2.5000000000E-01   3.009586E+00   0.
13    1    7    0    0    0   1.3212945028E+01  -5.7938998982E-01   1.5451138207E+02   1.5507641931E+02   1.0500000000E-01     0.000  -1.
-13    1    7    0    0    0   5.8003211985E+00  -3.0389543801E-01   6.8412902310E+01   6.8659102134E+01   1.0500000000E-01     0.000   1.
13    1    9    0    0    0  -1.0293543656E+01  -2.6678350526E+00   3.0112485765E+01   3.1935046717E+01   1.0500000000E-01     0.000   1.
-13    1    9    0    0    0  -2.3854629549E+01  -6.2103471062E+00   6.9348905881E+01   7.3599548464E+01   1.0500000000E-01     0.000  -1.
</event>
<event>
 13   1  9.2978750E-05  1.2500000E+02  7.5467720E-03  1.2380620E-01
   21   -1    0    0  502  501   0.0000000000E+00   0.0000000000E+00   1.9018554170E+02   1.9018554170E+02   0.0000000000E+00     0.000   1.
   21   -1    0    0  501  502   0.0000000000E+00   0.0000000000E+00  -2.0539153318E+01   2.0539153318E+01   0.0000000000E+00     0.000   1.
   25    2    1    2    0    0   0.0000000000E+00   0.0000000000E+00   1.6964638839E+02   2.1072469502E+02   1.2500000000E+02  4.442E-08  -1.
3000002    2    3    0    0    0  -5.4544219454E+01   3.8158378236E+00   1.3299742219E+02   1.4414557503E+02   1.0000000000E+01  6.548E-11   1.
3000002    2    3    0    0    0   5.4544219454E+01  -3.8158378236E+00   3.6648966204E+01   6.6579119985E+01   1.0000000000E+01  7.265E-10   1.
3000001    1    4    0    0    0  -3.3320200325E+01   5.9792425742E-01   6.8781122455E+01   7.6435829748E+01   1.0000000000E+00     0.000  -1.
3000022   2   4   0   0   0   -2.1224019128E+01   3.2179135662E+00   6.4216299731E+01   6.7709745287E+01   2.5000000000E-01   3.012562E+00   0.
3000001    1    5    0    0    0   2.2482758126E+01  -4.9599583743E+00   1.9570699958E+01   3.0233886566E+01   1.0000000000E+00     0.000  -1.
3000022   2   5   0   0   0   3.2061461328E+01   1.1441205508E+00   1.7078266246E+01   3.6345233419E+01   2.5000000000E-01   1.631292E+00   0.
13    1    7    0    0    0  -1.5950927307E+01   2.4357920052E+00   4.8208648413E+01   5.0837485888E+01   1.0500000000E-01     0.000  -1.
-13    1    7    0    0    0  -5.2730918216E+00   7.8212156096E-01   1.6007651318E+01   1.6872259398E+01   1.0500000000E-01     0.000   1.
13    1    9    0    0    0   8.0511293870E+00   2.6325129444E-01   4.2745429011E+00   9.1199083144E+00   1.0500000000E-01     0.000   1.
-13    1    9    0    0    0   2.4010331941E+01   8.8086925631E-01   1.2803723345E+01   2.7225325105E+01   1.0500000000E-01     0.000  -1.
</event>
<event>
 13   1  9.2978750E-05  1.2500000E+02  7.5467720E-03  1.2380620E-01
   21   -1    0    0  502  501   0.0000000000E+00   0.0000000000E+00   3.0370993548E+02   3.0370993548E+02   0.0000000000E+00     0.000  -1.
   21   -1    0    0  501  502   0.0000000000E+00   0.0000000000E+00  -1.2861778769E+01   1.2861778769E+01   0.0000000000E+00     0.000  -1.
   25    2    1    2    0    0   0.0000000000E+00   0.0000000000E+00   2.9084815671E+02   3.1657171424E+02   1.2500000000E+02  6.645E-10  -1.
3000002    2    3    0    0    0  -5.4012306416E+01  -2.7961271804E+01   1.1921615760E+02   1.3420750425E+02   1.0000000000E+01  5.611E-10  -1.
3000002    2    3    0    0    0   5.4012306416E+01   2.7961271804E+01   1.7163199911E+02   1.8236420999E+02   1.0000000000E+01  3.453E-10  -1.
3000001    1    4    0    0    0  -1.0549213016E+01  -9.1915729725E+00   3.2771131568E+01   3.5647131347E+01   1.0000000000E+00     0.000   1.
3000022   2   4   0   0   0   -4.3463093399E+01   -1.8769698831E+01   8.6445026029E+01   9.8560372905E+01   2.5000000000E-01   4.740304E+00   0.
3000001    1    5    0    0    0   1.2253123497E+01   6.9548482014E+00   5.3129714977E+01   5.4975226807E+01   1.0000000000E+00     0.000  -1.
3000022   2   5   0   0   0   4.1759182919E+01   2.1006423602E+01   1.1850228414E+02   1.2738898318E+02   2.5000000000E-01   1.703636E+01   0.
13    1    7    0    0    0  -2.4567002437E+01  -1.0635725312E+01   4.9008384981E+01   5.5843433679E+01   1.0500000000E-01     0.000   1.
-13    1    7    0    0    0  -1.8896090963E+01  -8.1339735190E+00   3.7436641048E+01   4.2716939226E+01   1.0500000000E-01     0.000  -1.
13    1    9    0    0    0   1.4482323638E+01   7.3458177649E+00   4.1206102987E+01   4.4290548483E+01   1.0500000000E-01     0.000   1.
-13    1    9    0    0    0   2.7276859280E+01   1.3660605838E+01   7.7296181150E+01   8.3098434699E+01   1.0500000000E-01     0.000  -1.
</event>
<event>
 13   1  9.2978750E-05  1.2500000E+02  7.5467720E-03  1.2380620E-01
   21   -1    0    0  502  501   0.0000000000E+00   0.0000000000E+00   1.3038516571E+01   1.3038516571E+01   0.0000000000E+00     0.000  -1.
   21   -1    0    0  501  502   0.0000000000E+00   0.0000000000E+00  -2.9959313076E+02   2.9959313076E+02   0.0000000000E+00     0.000  -1.
   25    2    1    2    0    0   0.0000000000E+00   0.0000000000E+00  -2.8655461419E+02   3.1263164733E+02   1.2500000000E+02  1.630E-07  -1.
3000002    2    3    0    0    0   2.2007318777E+01  -1.1443001402E+01  -1.9957896438E+00   2.6818790747E+01   1.0000000000E+01  5.454E-10   1.
3000002    2    3    0    0    0  -2.2007318777E+01   1.1443001402E+01  -2.8455882455E+02   2.8581285658E+02   1.0000000000E+01  8.282E-10   1.
3000001    1    4    0    0    0  -2.3984009248E-01  -1.0805599515E-01   1.2687230289E+00   1.6367215683E+00   1.0000000000E+00     0.000  -1.
3000022   2   4   0   0   0   2.2247158870E+01   -1.1334945407E+01   -3.2645126727E+00   2.5182069179E+01   2.5000000000E-01   5.402154E-01   0.
3000001    1    5    0    0    0  -2.0816838485E+01   1.1797222673E+01  -2.8128198902E+02   2.8229961490E+02   1.0000000000E+00     0.000   1.
3000022   2   5   0   0   0   -1.1904802927E+00   -3.5422127160E-01   -3.2768355306E+00   3.5132416842E+00   2.5000000000E-01   9.007361E+00   0.
13    1    7    0    0    0   7.2634206111E+00  -3.7192867468E+00  -1.1169219021E+00   8.2370451264E+00   1.0500000000E-01     0.000   1.
-13    1    7    0    0    0   1.4983738259E+01  -7.6156586597E+00  -2.1475907705E+00   1.6945024053E+01   1.0500000000E-01     0.000  -1.
13    1    9    0    0    0  -6.1493473830E-01  -2.0663499448E-01  -1.5310172008E+00   1.6660976630E+00   1.0500000000E-01     0.000  -1.
-13    1    9    0    0    0  -5.7554555443E-01  -1.4758627712E-01  -1.7458183298E+00   1.8471440212E+00   1.0500000000E-01     0.000   1.
</event>
<event>
 13   1  9.2978750E-05  1.2500000E+02  7.5467720E-03  1.2380620E-01
   21   -1    0    0  502  501   0.0000000000E+00   0.0000000000E+00   7.5903120121E+01   7.5903120121E+01   0.0000000000E+00     0.000   1.
   21   -1    0    0  501  502   0.0000000000E+00   0.0000000000E+00  -5.1463628818E+01   5.1463628818E+01   0.0000000000E+00     0.000   1.
   25    2    1    2    0    0   0.0000000000E+00   0.0000000000E+00   2.4439491303E+01   1.2736674894E+02   1.2500000000E+02  1.122E-08  -1.
3000002    2    3    0    0    0   2.6850136098E+01   7.8726890344E+00   6.8245745320E+01   7.4433801430E+01   1.0000000000E+01  3.931E-10  -1.
3000002    2    3    0    0    0  -2.6850136098E+01  -7.8726890344E+00  -4.3806254017E+01   5.2932947510E+01   1.0000000000E+01  7.758E-10  -1.
3000001    1    4    0    0    0   2.0742484040E+01   3.0776870740E+00   4.0457491163E+01   4.5579945076E+01   1.0000000000E+00     0.000   1.
3000022   2   4   0   0   0   6.1076520574E+00   4.7950019605E+00   2.7788254156E+01   2.8853856354E+01   2.5000000000E-01   3.048105E-01   0.
3000001    1    5    0    0    0  -1.0579755109E+01  -2.6288608919E+00  -9.0662420061E+00   1.4214037845E+01   1.0000000000E+00     0.000   1.
3000022   2   5   0   0   0   -1.6270380989E+01   -5.2438281425E+00   -3.4740012011E+01   3.8718909664E+01   2.5000000000E-01   1.252817E+01   0.
13    1    7    0    0    0   3.7672690279E+00   2.8912692582E+00   1.6867098020E+01   1.7523178207E+01   1.0500000000E-01     0.000   1.
-13    1    7    0    0    0   2.3403830295E+00   1.9037327023E+00   1.0921156136E+01   1.1330678147E+01   1.0500000000E-01     0.000  -1.
13    1    9    0    0    0  -3.9094321471E+00  -1.2794590564E+00  -8.3449333573E+00   9.3042792804E+00   1.0500000000E-01     0.000   1.
-13    1    9    0    0    0  -1.2360948841E+01  -3.9643690861E+00  -2.6395078653E+01   2.9414630384E+01   1.0500000000E-01     0.000  -1.
</event>
<event>
 13   1  9.2978750E-05  1.2500000E+02  7.5467720E-03  1.2380620E-01
   21   -1    0    0  502  501   0.0000000000E+00   0.0000000000E+00   1.2274768810E+02   1.2274768810E+02   0.0000000000E+00     0.000   1.
   21   -1    0    0  501  502   0.0000000000E+00   0.0000000000E+00  -3.1823409959E+01   3.1823409959E+01   0.0000000000E+00     0.000   1.
   25    2    1    2    0    0   0.0000000000E+00   0.0000000000E+00   9.0924278146E+01   1.5457109806E+02   1.2500000000E+02  7.444E-08  -1.
3000002    2    3    0    0    0   4.5302064769E+00  -6.0049455206E+01   6.2042777040E+01   8.7038876510E+01   1.0000000000E+01  2.407E-10   1.
3000002    2    3    0    0    0  -4.5302064769E+00   6.0049455206E+01   2.8881501106E+01   6.7532221550E+01   1.0000000000E+01  3.003E-11   1.
3000001    1    4    0    0    0   5.6122508349E+00  -4.4756565784E+01   4.0726287650E+01   6.0780572932E+01   1.0000000000E+00     0.000   1.
3000022   2   4   0   0   0   -1.0820443580E+00   -1.5292889423E+01   2.1316489390E+01   2.6258303578E+01   2.5000000000E-01   9.187678E+00   1.
3000001    1    5    0    0    0  -4.4795757536E+00   1.0669577483E+01   6.5798200926E+00   1.3349176568E+01   1.0000000000E+00     0.000  -1.
3000022   2   5   0   0   0   -5.0630723317E-02   4.9379877723E+01   2.2301681013E+01   5.4183044981E+01   2.5000000000E-01   8.530317E+00   0.
13    1    7    0    0    0  -4.7524943702E-01  -6.5575687887E+00   9.2524071473E+00   1.1351019050E+01   1.0500000000E-01     0.000   1.
-13    1    7    0    0    0  -6.0679492095E-01  -8.7353206339E+00   1.2064082243E+01   1.4907284529E+01   1.0500000000E-01     0.000   1.
13    1    9    0    0    0  -4.3399881008E-02   3.7532745119E+01   1.6971432048E+01   4.1191617721E+01   1.0500000000E-01     0.000   1.
-13    1    9    0    0    0  -7.2308423095E-03   1.1847132605E+01   5.3302489647E+00   1.2991427261E+01   1.0500000000E-01     0.000  -1.
</event>
<event>
 13   1  9.2978750E-05  1.2500000E+02  7.5467720E-03  1.2380620E-01
   21   -1    0    0  502  501   0.0000000000E+00   0.0000000000E+00   1.6634581005E+02   1.6634581005E+02   0.0000000000E+00     0.000   1.
   21   -1    0    0  501  502   0.0000000000E+00   0.0000000000E+00  -2.3482707492E+01   2.3482707492E+01   0.0000000000E+00     0.000   1.
   25    2    1    2    0    0   0.0000000000E+00   0.0000000000E+00   1.4286310256E+02   1.8982851754E+02   1.2500000000E+02  7.389E-09  -1.
3000002    2    3    0    0    0   3.0557365218E+01  -2.8155597395E+01   1.4068765091E+02   1.4703572815E+02   1.0000000000E+01  1.308E-09   1.
3000002    2    3    0    0    0  -3.0557365218E+01   2.8155597395E+01   2.1754516470E+00   4.2792789388E+01   1.0000000000E+01  3.309E-10   1.
3000001    1    4    0    0    0   4.5108958379E+00  -7.0349703835E+00   1.8403903731E+01   2.0237160426E+01   1.0000000000E+00     0.000  -1.
3000022   2   4   0   0   0   2.6046469380E+01   -2.1120627011E+01   1.2228374718E+02   1.2679856773E+02   2.5000000000E-01   6.748428E+00   0.
3000001    1    5    0    0    0  -2.9248433872E+01   2.7408322667E+01  -4.6811051122E-02   4.0096000133E+01   1.0000000000E+00     0.000   1.
3000022   2   5   0   0   0   -1.3089313466E+00   7.4727472790E-01   2.2222626981E+00   2.6967892555E+00   2.5000000000E-01   1.640873E-01   0.
13    1    7    0    0    0   7.7646375164E+00  -6.3539333679E+00   3.6619141263E+01   3.7968863518E+01   1.0500000000E-01     0.000   1.
-13    1    7    0    0    0   1.8281831864E+01  -1.4766693643E+01   8.5664605918E+01   8.8829704207E+01   1.0500000000E-01     0.000  -1.
13    1    9    0    0    0  -3.0529468110E-01   1.9930304612E-01   5.6595817970E-01   6.8136642687E-01   1.0500000000E-01     0.000  -1.
-13    1    9    0    0    0  -1.0036366655E+00   5.4797168178E-01   1.6563045184E+00   2.0154228286E+00   1.0500000000E-01     0.000   1.
</event>
<event>
 13   1  9.2978750E-05  1.2500000E+02  7.5467720E-03  1.2380620E-01
   21   -1    0    0  502  501   0.0000000000E+00   0.0000000000E+00   4.8806706622E+02   4.8806706622E+02   0.0000000000E+00     0.000  -1.
   21   -1    0    0  501  502   0.0000000000E+00   0.0000000000E+00  -8.0035107271E+00   8.0035107271E+00   0.0000000000E+00     0.000  -1.
   25    2    1    2    0    0   0.0000000000E+00   0.0000000000E+00   4.8006355549E+02   4.9607057694E+02   1.2500000000E+02  4.122E-09  -1.
3000002    2    3    0    0    0   4.6177287628E+01   4.0800953700E+01   2.2800088352E+02   2.3639260268E+02   1.0000000000E+01  7.972E-10   1.
3000002    2    3    0    0    0  -4.6177287628E+01  -4.0800953700E+01   2.5206267197E+02   2.5967797426E+02   1.0000000000E+01  7.153E-10   1.
3000001    1    4    0    0    0   2.2561754693E+01   2.4207989720E+01   1.3592784389E+02   1.3990153068E+02   1.0000000000E+00     0.000   1.
3000022   2   4   0   0   0   2.3615532936E+01   1.6592963979E+01   9.2073039627E+01   9.6491071999E+01   2.5000000000E-01   6.025225E-01   0.
3000001    1    5    0    0    0  -8.9886514081E+00  -1.2736721847E+01   5.4375855796E+01   5.6575203323E+01   1.0000000000E+00     0.000   1.
3000022   2   5   0   0   0   -3.7188636220E+01   -2.8064231853E+01   1.9768681618E+02   2.0310277094E+02   2.5000000000E-01   4.275863E+00   0.
13    1    7    0    0    0   1.1612392163E+01   8.1253346152E+00   4.5005920945E+01   4.7184877445E+01   1.0500000000E-01     0.000   1.
-13    1    7    0    0    0   1.2003140772E+01   8.4676293642E+00   4.7067118682E+01   4.9306194555E+01   1.0500000000E-01     0.000  -1.
13    1    9    0    0    0  -8.8321444342E+00  -6.6764168670E+00   4.6915884837E+01   4.8204694715E+01   1.0500000000E-01     0.000   1.
-13    1    9    0    0    0  -2.8356491786E+01  -2.1387814986E+01   1.5077093134E+02   1.5489807622E+02   1.0500000000E-01     0.000  -1.
</event>
<event>
 13   1  9.2978750E-05  1.2500000E+02  7.5467720E-03  1.2380620E-01
   21   -1    0    0  502  501   0.0000000000E+00   0.0000000000E+00   3.2607113783E+01   3.2607113783E+01   0.0000000000E+00     0.000  -1.
   21   -1    0    0  501  502   0.0000000000E+00   0.0000000000E+00  -1.1979747812E+02   1.1979747812E+02   0.0000000000E+00     0.000  -1.
   25    2    1    2    0    0   0.0000000000E+00   0.0000000000E+00  -8.7190364339E+01   1.5240459190E+02   1.2500000000E+02  3.372E-08  -1.
3000002    2    3    0    0    0   5.8726598335E+01  -1.8737730289E+01  -4.0526648576E+01   7.4446793976E+01   1.0000000000E+01  1.252E-09   1.
3000002    2    3    0    0    0  -5.8726598335E+01   1.8737730289E+01  -4.6663715763E+01   7.7957797924E+01   1.0000000000E+01  4.855E-10   1.
3000001    1    4    0    0    0   3.4651436640E+01  -1.1067326512E+01  -1.8015219158E+01   4.0604875306E+01   1.0000000000E+00     0.000  -1.
3000022   2   4   0   0   0   2.4075161696E+01   -7.6704037769E+00   -2.2511429419E+01   3.3841918670E+01   2.5000000000E-01   4.020121E+00   0.
3000001    1    5    0    0    0  -4.1443179483E+01   1.3618592263E+01  -2.7152001679E+01   5.1392940916E+01   1.0000000000E+00     0.000   1.
3000022   2   5   0   0   0   -1.7283418853E+01   5.1191380261E+00   -1.9511714084E+01   2.6564857008E+01   2.5000000000E-01   1.065649E+00   0.
13    1    7    0    0    0   1.7516769868E+01  -5.5950896107E+00  -1.6428267740E+01   2.4658492661E+01   1.0500000000E-01     0.000  -1.
-13    1    7    0    0    0   6.5583918278E+00  -2.0753141662E+00  -6.0831616784E+00   9.1834260089E+00   1.0500000000E-01     0.000   1.
13    1    9    0    0    0  -8.3316563047E+00   2.5364291203E+00  -9.4500260857E+00   1.2851614198E+01   1.0500000000E-01     0.000  -1.
-13    1    9    0    0    0  -8.9517625481E+00   2.5827089058E+00  -1.0061687998E+01   1.3713242811E+01   1.0500000000E-01     0.000   1.
</event>
<event>
 13   1  9.2978750E-05  1.2500000E+02  7.5467720E-03  1.2380620E-01
   21   -1    0    0  502  501   0.0000000000E+00   0.0000000000E+00   4.8851809345E+01   4.8851809345E+01   0.0000000000E+00     0.000  -1.
   21   -1    0    0  501  502   0.0000000000E+00   0.0000000000E+00  -7.9961214382E+01   7.9961214382E+01   0.0000000000E+00     0.000  -1.
   25    2    1    2    0    0   0.0000000000E+00   0.0000000000E+00  -3.1109405037E+01   1.2881302373E+02   1.2500000000E+02  2.350E-09  -1.
3000002    2    3    0    0    0  -2.4117356448E+01  -4.9250255313E+01  -4.4683821923E+01   7.1441433860E+01   1.0000000000E+01  3.165E-10   1.
3000002    2    3    0    0    0   2.4117356448E+01   4.9250255313E+01   1.3574416886E+01   5.7371589870E+01   1.0000000000E+01  6.075E-10   1.
3000001    1    4    0    0    0  -2.4849350194E-01  -9.9696920303E-01  -3.1036590899E+00   3.4188296768E+00   1.0000000000E+00     0.000   1.
3000022   2   4   0   0   0   -2.3868862946E+01   -4.8253286110E+01   -4.1580162833E+01   6.8022604184E+01   2.5000000000E-01   2.334781E-01   0.
3000001    1    5    0    0    0   2.9323404328E+00   1.8402174699E+00  -3.1601740153E-01   3.6173039337E+00   1.0000000000E+00     0.000  -1.
3000022   2   5   0   0   0   2.1185016015E+01   4.7410037843E+01   1.3890434287E+01   5.3754285936E+01   2.5000000000E-01   2.754789E+00   0.
13    1    7    0    0    0  -1.7116417889E+01  -3.4654695497E+01  -2.9894971733E+01   4.8863483719E+01   1.0500000000E-01     0.000  -1.
-13    1    7    0    0    0  -6.7524450569E+00  -1.3598590613E+01  -1.1685191100E+01   1.9159120464E+01   1.0500000000E-01     0.000   1.
13    1    9    0    0    0   7.4795480414E+00   1.6879119475E+01   4.9362012001E+00   1.9110871787E+01   1.0500000000E-01     0.000  -1.
-13    1    9    0    0    0   1.3705467973E+01   3.0530918368E+01   8.9542330872E+00   3.4643414149E+01   1.0500000000E-01     0.000   1.
</event>
<event>
 13   1  9.2978750E-05  1.2500000E+02  7.5467720E-03  1.2380620E-01
   21   -1    0    0  502  501   0.0000000000E+00   0.0000000000E+00   1.2296617716E+01   1.2296617716E+01   0.0000000000E+00     0.000   1.
   21   -1    0    0  501  502   0.0000000000E+00   0.0000000000E+00  -3.1766865411E+02   3.1766865411E+02   0.0000000000E+00     0.000   1.
   25    2    1    2    0    0   0.0000000000E+00   0.0000000000E+00  -3.0537203639E+02   3.2996527183E+02   1.2500000000E+02  1.897E-07  -1.
3000002    2    3    0    0    0  -6.7245391492E+00   5.8147123438E+01  -1.0123224573E+02   1.1736385716E+02   1.0000000000E+01  7.482E-10  -1.
3000002    2    3    0    0    0   6.7245391492E+00  -5.8147123438E+01  -2.0413979066E+02   2.1260141467E+02   1.0000000000E+01  2.008E-10  -1.
3000001    1    4    0    0    0  -3.2724439356E-01   1.7280891107E+01  -2.2114743899E+01   2.8085551162E+01   1.0000000000E+00     0.000   1.
3000022   2   4   0   0   0   -6.3972947557E+00   4.0866232332E+01   -7.9117501835E+01   8.9278305997E+01   2.5000000000E-01   8.904618E+00   0.
3000001    1    5    0    0    0  -4.5612588653E-01  -2.9216663625E+01  -8.9799636775E+01   9.4439378699E+01   1.0000000000E+00     0.000   1.
3000022   2   5   0   0   0   7.1806650358E+00   -2.8930459813E+01   -1.1434015388E+02   1.1816203597E+02   2.5000000000E-01   4.297930E+00   0.
13    1    7    0    0    0  -4.1295128901E+00   2.6308267889E+01  -5.0814170919E+01   5.7369581027E+01   1.0500000000E-01     0.000  -1.
-13    1    7    0    0    0  -2.2677818656E+00   1.4557964443E+01  -2.8303330915E+01   3.1908724970E+01   1.0500000000E-01     0.000   1.
13    1    9    0    0    0   1.8258054960E+00  -7.4800652412E+00  -2.9566409939E+01   3.0552717775E+01   1.0500000000E-01     0.000  -1.
-13    1    9    0    0    0   5.3548595398E+00  -2.1450394572E+01  -8.4773743943E+01   8.7609318198E+01   1.0500000000E-01     0.000   1.
</event>
<event>
 13   1  9.2978750E-05  1.2500000E+02  7.5467720E-03  1.2380620E-01
   21   -1    0    0  502  501   0.0000000000E+00   0.0000000000E+00   2.1530691729E+01   2.1530691729E+01   0.0000000000E+00     0.000   1.
   21   -1    0    0  501  502   0.0000000000E+00   0.0000000000E+00  -1.8142705535E+02   1.8142705535E+02   0.0000000000E+00     0.000   1.
   25    2    1    2    0    0   0.0000000000E+00   0.0000000000E+00  -1.5989636362E+02   2.0295774708E+02   1.2500000000E+02  2.405E-08  -1.
3000002    2    3    0    0    0  -2.4926168019E+01  -4.6398833978E+01  -1.3211005962E+02   1.4257360730E+02   1.0000000000E+01  1.315E-09  -1.
3000002    2    3    0    0    0   2.4926168019E+01   4.6398833978E+01  -2.7786304000E+01   6.0384139777E+01   1.0000000000E+01  2.196E-10  -1.
3000001    1    4    0    0    0  -2.4993996860E+01  -4.3212537714E+01  -1.2780019509E+02   1.3720755504E+02   1.0000000000E+00     0.000  -1.
3000022   2   4   0   0   0   6.7828841161E-02   -3.1862962640E+00   -4.3098645292E+00   5.3660522634E+00   2.5000000000E-01   4.774611E-03   -1.
3000001    1    5    0    0    0   1.3080737120E-01   4.9233080742E+00  -4.4890053754E+00   6.7384896098E+00   1.0000000000E+00     0.000  -1.
3000022   2   5   0   0   0   2.4795360648E+01   4.1475525903E+01   -2.3297298624E+01   5.3645650167E+01   2.5000000000E-01   6.922865E+00   0.
13    1    7    0    0    0   4.8303606391E-02  -2.4145431287E+00  -3.2229698967E+00   4.0287605679E+00   1.0500000000E-01     0.000  -1.
-13    1    7    0    0    0   1.9525234769E-02  -7.7175313527E-01  -1.0868946325E+00   1.3372916955E+00   1.0500000000E-01     0.000  -1.
13    1    9    0    0    0   6.6748469676E+00   1.1220058358E+01  -6.3193714920E+00   1.4504784475E+01   1.0500000000E-01     0.000   1.
-13    1    9    0    0    0   1.8120513680E+01   3.0255467546E+01  -1.6977927132E+01   3.9140865692E+01   1.0500000000E-01     0.000  -1.
</event>
<event>
 13   1  9.2978750E-05  1.2500000E+02  7.5467720E-03  1.2380620E-01
   21   -1    0    0  502  501   0.0000000000E+00   0.0000000000E+00   4.1633748735E+01   4.1633748735E+01   0.0000000000E+00     0.000  -1.
   21   -1    0    0  501  502   0.0000000000E+00   0.0000000000E+00  -9.3824123907E+01   9.3824123907E+01   0.0000000000E+00     0.000  -1.
   25    2    1    2    0    0   0.0000000000E+00   0.0000000000E+00  -5.2190375172E+01   1.3545787264E+02   1.2500000000E+02  5.254E-08  -1.
3000002    2    3    0    0    0   4.0231906426E+01  -4.4682538794E+01  -4.1076193654E+01   7.3500947292E+01   1.0000000000E+01  2.157E-09   1.
3000002    2    3    0    0    0  -4.0231906426E+01   4.4682538794E+01  -1.1114181518E+01   6.1956925348E+01   1.0000000000E+01  9.554E-11   1.
3000001    1    4    0    0    0   3.0505895946E+01  -2.7018330341E+01  -2.6529032263E+01   4.8635269247E+01   1.0000000000E+00     0.000   1.
3000022   2   4   0   0   0   9.7260104801E+00   -1.7664208453E+01   -1.4547161390E+01   2.4865678045E+01   2.5000000000E-01   4.787102E+00   0.
3000001    1    5    0    0    0  -2.1952240496E+01   2.8850314964E+01  -2.7621409548E+00   3.6371293062E+01   1.0000000000E+00     0.000  -1.
3000022   2   5   0   0   0   -1.8279665930E+01   1.5832223829E+01   -8.3520405635E+00   2.5585632286E+01   2.5000000000E-01   9.101771E+00   0.
13    1    7    0    0    0   5.4547578070E+00  -9.7867342623E+00  -8.0426664466E+00   1.3792391338E+01   1.0500000000E-01     0.000  -1.
-13    1    7    0    0    0   4.2712526731E+00  -7.8774741906E+00  -6.5044949436E+00   1.1073286707E+01   1.0500000000E-01     0.000   1.
13    1    9    0    0    0  -1.2599966577E+01   1.0917007465E+01  -5.7064352646E+00   1.7621425543E+01   1.0500000000E-01     0.000  -1.
-13    1    9    0    0    0  -5.6796993532E+00   4.9152163641E+00  -2.6456052989E+00   7.9642067430E+00   1.0500000000E-01     0.000   1.
</event>
<event>
 13   1  9.2978750E-05  1.2500000E+02  7.5467720E-03  1.2380620E-01
   21   -1    0    0  502  501   0.0000000000E+00   0.0000000000E+00   1.6524608837E+02   1.6524608837E+02   0.0000000000E+00     0.000  -1.
   21   -1    0    0  501  502   0.0000000000E+00   0.0000000000E+00  -2.3638986184E+01   2.3638986184E+01   0.0000000000E+00     0.000  -1.
   25    2    1    2    0    0   0.0000000000E+00   0.0000000000E+00   1.4160710219E+02   1.8888507455E+02   1.2500000000E+02  3.864E-08  -1.
3000002    2    3    0    0    0   8.5697470684E+00   3.7859739478E+01   1.4326375850E+02   1.4876594011E+02   1.0000000000E+01  8.212E-10  -1.
3000002    2    3    0    0    0  -8.5697470684E+00  -3.7859739478E+01  -1.6566563062E+00   4.0119134441E+01   1.0000000000E+01  4.660E-10  -1.
3000001    1    4    0    0    0   5.4293063229E+00   3.4690127495E+01   1.1828375909E+02   1.2338934304E+02   1.0000000000E+00     0.000  -1.
3000022   2   4   0   0   0   3.1404407455E+00   3.1696119828E+00   2.4979999407E+01   2.5376597065E+01   2.5000000000E-01   4.587588E+00   0.
3000001    1    5    0    0    0  -8.1787944279E+00  -2.2962875357E+01  -4.8572185041E+00   2.4875266723E+01   1.0000000000E+00     0.000  -1.
3000022   2   5   0   0   0   -3.9095264045E-01   -1.4896864121E+01   3.2005621979E+00   1.5243867717E+01   2.5000000000E-01   1.229673E+00   0.
13    1    7    0    0    0   8.2571848393E-01   8.8109236104E-01   6.6970180590E+00   6.8058218200E+00   1.0500000000E-01     0.000  -1.
-13    1    7    0    0    0   2.3147222615E+00   2.2885196218E+00   1.8282981348E+01   1.8570775244E+01   1.0500000000E-01     0.000   1.
13    1    9    0    0    0  -1.9500506465E-01  -6.5024443606E+00   1.4599119877E+00   6.6679965244E+00   1.0500000000E-01     0.000   1.
-13    1    9    0    0    0  -1.9594757580E-01  -8.3944197602E+00   1.7406502102E+00   8.5758711929E+00   1.0500000000E-01     0.000  -1.
</event>
<event>
 13   1  9.2978750E-05  1.2500000E+02  7.5467720E-03  1.2380620E-01
   21   -1    0    0  502  501   0.0000000000E+00   0.0000000000E+00   3.7197337738E+02   3.7197337738E+02   0.0000000000E+00     0.000  -1.
   21   -1    0    0  501  502   0.0000000000E+00   0.0000000000E+00  -1.0501423590E+01   1.0501423590E+01   0.0000000000E+00     0.000  -1.
   25    2    1    2    0    0   0.0000000000E+00   0.0000000000E+00   3.6147195379E+02   3.8247480097E+02   1.2500000000E+02  2.925E-08  -1.
3000002    2    3    0    0    0  -5.2457741448E+01   2.8754035355E+01   2.2690151248E+02   2.3486784699E+02   1.0000000000E+01  2.917E-10   1.
3000002    2    3    0    0    0   5.2457741448E+01  -2.8754035355E+01   1.3457044131E+02   1.4760695398E+02   1.0000000000E+01  1.437E-09   1.
3000001    1    4    0    0    0  -2.9798440272E+01   1.8064514166E+01   1.1357801130E+02   1.1880756863E+02   1.0000000000E+00     0.000  -1.
3000022   2   4   0   0   0   -2.2659301176E+01   1.0689521189E+01   1.1332350118E+02   1.1606027836E+02   2.5000000000E-01   8.482180E+00   0.
3000001    1    5    0    0    0   4.7075316716E+01  -2.2260020801E+01   1.1896074874E+02   1.2986244149E+02   1.0000000000E+00     0.000   1.
3000022   2   5   0   0   0   5.3824247324E+00   -6.4940145544E+00   1.5609692577E+01   1.7744512487E+01   2.5000000000E-01   1.093314E+00   0.
13    1    7    0    0    0  -1.5540212758E+01   7.3693685537E+00   7.7628976205E+01   7.9511475757E+01   1.0500000000E-01     0.000   1.
-13    1    7    0    0    0  -7.1190884177E+00   3.3201526353E+00   3.5694524977E+01   3.6548802603E+01   1.0500000000E-01     0.000  -1.
13    1    9    0    0    0   3.3192730124E+00  -4.0773663981E+00   9.8096118851E+00   1.1130229127E+01   1.0500000000E-01     0.000  -1.
-13    1    9    0    0    0   2.0631517200E+00  -2.4166481563E+00   5.8000806923E+00   6.6142833601E+00   1.0500000000E-01     0.000   1.
</event>
<event>
 13   1  9.2978750E-05  1.2500000E+02  7.5467720E-03  1.2380620E-01
   21   -1    0    0  502  501   0.0000000000E+00   0.0000000000E+00   5.3023828398E+02   5.3023828398E+02   0.0000000000E+00     0.000  -1.
   21   -1    0    0  501  502   0.0000000000E+00   0.0000000000E+00  -7.3669708847E+00   7.3669708847E+00   0.0000000000E+00     0.000  -1.
   25    2    1    2    0    0   0.0000000000E+00   0.0000000000E+00   5.2287131309E+02   5.3760525486E+02   1.2500000000E+02  1.086E-08  -1.
3000002    2    3    0    0    0  -1.1280291788E+01  -4.5657199939E+01   8.9701945477E+01   1.0177555655E+02   1.0000000000E+01  7.297E-10  -1.
3000002    2    3    0    0    0   1.1280291788E+01   4.5657199939E+01   4.3316936761E+02   4.3582969831E+02   1.0000000000E+01  4.547E-10  -1.
3000001    1    4    0    0    0  -6.2265776174E+00  -1.0897597449E+01   2.9515493997E+01   3.2088818689E+01   1.0000000000E+00     0.000   1.
3000022   2   4   0   0   0   -5.0537141705E+00   -3.4759602490E+01   6.0186451480E+01   6.9686737863E+01   2.5000000000E-01   3.523252E+00   0.
3000001    1    5    0    0    0   3.1575560891E+00   2.9315742574E+01   2.4219528315E+02   2.4398552847E+02   1.0000000000E+00     0.000  -1.
3000022   2   5   0   0   0   8.1227356988E+00   1.6341457365E+01   1.9097408446E+02   1.9184416983E+02   2.5000000000E-01   1.879525E+00   0.
13    1    7    0    0    0  -2.1129078894E+00  -1.4450852161E+01   2.5150681927E+01   2.9083660952E+01   1.0500000000E-01     0.000  -1.
-13    1    7    0    0    0  -2.9408062812E+00  -2.0308750329E+01   3.5035769553E+01   4.0603076912E+01   1.0500000000E-01     0.000   1.
13    1    9    0    0    0   3.7944668186E+00   7.5751772039E+00   8.8012710480E+01   8.8419621799E+01   1.0500000000E-01     0.000   1.
-13    1    9    0    0    0   4.3282688802E+00   8.7662801611E+00   1.0296137398E+02   1.0342454804E+02   1.0500000000E-01     0.000  -1.
</event>
<event>
 13   1  9.2978750E-05  1.2500000E+02  7.5467720E-03  1.2380620E-01
   21   -1    0    0  502  501   0.0000000000E+00   0.0000000000E+00   4.3409481341E+01   4.3409481341E+01   0.0000000000E+00     0.000   1.
   21   -1    0    0  501  502   0.0000000000E+00   0.0000000000E+00  -8.9986101638E+01   8.9986101638E+01   0.0000000000E+00     0.000   1.
   25    2    1    2    0    0   0.0000000000E+00   0.0000000000E+00  -4.6576620297E+01   1.3339558298E+02   1.2500000000E+02  4.876E-08  -1.
3000002    2    3    0    0    0   1.0523200830E+01  -5.8393101251E+01  -4.1328064230E+01   7.2996581580E+01   1.0000000000E+01  1.181E-09  -1.
3000002    2    3    0    0    0  -1.0523200830E+01   5.8393101251E+01  -5.2485560675E+00   6.0399001400E+01   1.0000000000E+01  5.456E-11  -1.
3000001    1    4    0    0    0   2.0597423566E+00  -2.3501595468E+01  -2.1740129376E+01   3.2096740541E+01   1.0000000000E+00     0.000   1.
3000022   2   4   0   0   0   8.4634584731E+00   -3.4891505783E+01   -1.9587934854E+01   4.0899841038E+01   2.5000000000E-01   6.211802E+00   0.
3000001    1    5    0    0    0   8.2561849057E-01   2.2200749294E+01  -1.7598191919E+00   2.2308112397E+01   1.0000000000E+00     0.000   1.
3000022   2   5   0   0   0   -1.1348819320E+01   3.6192351956E+01   -3.4887368755E+00   3.8090889003E+01   2.5000000000E-01   7.636054E+00   0.
13    1    7    0    0    0   4.6945393197E+00  -1.9302258159E+01  -1.0912239613E+01   2.2665036241E+01   1.0500000000E-01     0.000   1.
-13    1    7    0    0    0   3.7689191534E+00  -1.5589247624E+01  -8.6756952409E+00   1.8234804797E+01   1.0500000000E-01     0.000  -1.
13    1    9    0    0    0  -7.0490404201E+00   2.2352568132E+01  -2.1078183762E+00   2.3532534845E+01   1.0500000000E-01     0.000  -1.
-13    1    9    0    0    0  -4.2997789001E+00   1.3839783824E+01  -1.3809184994E+00   1.4558354158E+01   1.0500000000E-01     0.000   1.
</event>
<event>
 13   1  9.2978750E-05  1.2500000E+02  7.5467720E-03  1.2380620E-01
   21   -1    0    0  502  501   0.0000000000E+00   0.0000000000E+00   3.2235732417E+01   3.2235732417E+01   0.0000000000E+00     0.000  -1.
   21   -1    0    0  501  502   0.0000000000E+00   0.0000000000E+00  -1.2117764068E+02   1.2117764068E+02   0.0000000000E+00     0.000  -1.
   25    2    1    2    0    0   0.0000000000E+00   0.0000000000E+00  -8.8941908267E+01   1.5341337310E+02   1.2500000000E+02  2.616E-08  -1.
3000002    2    3    0    0    0   8.5540239136E+00  -6.0127851257E+01  -3.1154804673E+01   6.8986605049E+01   1.0000000000E+01  9.674E-10   1.
3000002    2    3    0    0    0  -8.5540239136E+00   6.0127851257E+01  -5.7787103594E+01   8.4426768051E+01   1.0000000000E+01  2.101E-10   1.
3000001    1    4    0    0    0   2.5237675912E+00  -8.6099555370E+00  -8.4478756262E+00   1.2363953243E+01   1.0000000000E+00     0.000   1.
3000022   2   4   0   0   0   6.0302563225E+00   -5.1517895720E+01   -2.2706929047E+01   5.6622651805E+01   2.5000000000E-01   4.714648E+00   0.
3000001    1    5    0    0    0  -9.2777829721E+00   3.4147957531E+01  -3.6303466418E+01   5.0706034497E+01   1.0000000000E+00     0.000   1.
3000022   2   5   0   0   0   7.2375905841E-01   2.5979893726E+01   -2.1483637175E+01   3.3720733555E+01   2.5000000000E-01   3.285021E+00   0.
13    1    7    0    0    0   2.4553058719E+00  -2.1450067859E+01  -9.4881620717E+00   2.3583260643E+01   1.0500000000E-01     0.000   1.
-13    1    7    0    0    0   3.5749504505E+00  -3.0067827861E+01  -1.3218766976E+01   3.3039391162E+01   1.0500000000E-01     0.000  -1.
13    1    9    0    0    0   4.4051155972E-01   1.4412981264E+01  -1.1849575736E+01   1.8664178243E+01   1.0500000000E-01     0.000   1.
-13    1    9    0    0    0   2.8324749868E-01   1.1566912462E+01  -9.6340614392E+00   1.5056555312E+01   1.0500000000E-01     0.000  -1.
</event>
<event>
 13   1  9.2978750E-05  1.2500000E+02  7.5467720E-03  1.2380620E-01
   21   -1    0    0  502  501   0.0000000000E+00   0.0000000000E+00   4.7637288922E+01   4.7637288922E+01   0.0000000000E+00     0.000   1.
   21   -1    0    0  501  502   0.0000000000E+00   0.0000000000E+00  -8.1999838539E+01   8.1999838539E+01   0.0000000000E+00     0.000   1.
   25    2    1    2    0    0   0.0000000000E+00   0.0000000000E+00  -3.4362549617E+01   1.2963712746E+02   1.2500000000E+02  8.922E-08  -1.
3000002    2    3    0    0    0   5.8094677965E+01  -1.2319572471E+01   1.5675814868E-01   6.0222819984E+01   1.0000000000E+01  3.068E-10   1.
3000002    2    3    0    0    0  -5.8094677965E+01   1.2319572471E+01  -3.4519307766E+01   6.9414307476E+01   1.0000000000E+01  1.279E-09   1.
3000001    1    4    0    0    0   5.5304865855E+01  -1.3837233547E+01   4.8294475208E-01   5.7020438925E+01   1.0000000000E+00     0.000   1.
3000022   2   4   0   0   0   2.7898121097E+00   1.5176610764E+00   -3.2618660340E-01   3.2023810596E+00   2.5000000000E-01   1.873250E+00   0.
3000001    1    5    0    0    0  -2.5093124858E+01   4.0439305216E-01  -1.5257146794E+01   2.9387224727E+01   1.0000000000E+00     0.000   1.
3000022   2   5   0   0   0   -3.3001553107E+01   1.1915179419E+01   -1.9262160971E+01   4.0027082748E+01   2.5000000000E-01   2.588492E-01   0.
13    1    7    0    0    0   9.8267131043E-01   5.0010689902E-01  -6.6038524415E-02   1.1095656364E+00   1.0500000000E-01     0.000  -1.
-13    1    7    0    0    0   1.8071407993E+00   1.0175541774E+00  -2.6014807899E-01   2.0928154232E+00   1.0500000000E-01     0.000   1.
13    1    9    0    0    0  -2.4594666104E+01   8.8524685512E+00  -1.4334448669E+01   2.9811931233E+01   1.0500000000E-01     0.000   1.
-13    1    9    0    0    0  -8.4068870035E+00   3.0627108675E+00  -4.9277123018E+00   1.0215151515E+01   1.0500000000E-01     0.000  -1.
</event>
<event>
 13   1  9.2978750E-05  1.2500000E+02  7.5467720E-03  1.2380620E-01
   21   -1    0    0  502  501   0.0000000000E+00   0.0000000000E+00   7.9264568384E+01   7.9264568384E+01   0.0000000000E+00     0.000  -1.
   21   -1    0    0  501  502   0.0000000000E+00   0.0000000000E+00  -4.9281161553E+01   4.9281161553E+01   0.0000000000E+00     0.000  -1.
   25    2    1    2    0    0   0.0000000000E+00   0.0000000000E+00   2.9983406831E+01   1.2854572994E+02   1.2500000000E+02  1.693E-08  -1.
3000002    2    3    0    0    0  -2.3494056498E+01  -4.4588175452E+01   5.1584392324E+01   7.2808142486E+01   1.0000000000E+01  8.553E-11   1.
3000002    2    3    0    0    0   2.3494056498E+01   4.4588175452E+01  -2.1600985493E+01   5.5737587454E+01   1.0000000000E+01  8.683E-10   1.
3000001    1    4    0    0    0  -5.1493185799E+00  -1.0958118272E+01   6.9817820709E+00   1.4012177517E+01   1.0000000000E+00     0.000  -1.
3000022   2   4   0   0   0   -1.8344737918E+01   -3.3630057180E+01   4.4602610253E+01   5.8795964969E+01   2.5000000000E-01   6.211904E+00   0.
3000001    1    5    0    0    0   3.1291474033E+00   2.5016628791E+00   2.3225953685E-01   4.1356771060E+00   1.0000000000E+00     0.000  -1.
3000022   2   5   0   0   0   2.0364909095E+01   4.2086512573E+01   -2.1833245030E+01   5.1601910348E+01   2.5000000000E-01   7.602757E+00   0.
13    1    7    0    0    0  -7.8864551819E+00  -1.4380346402E+01   1.9178647724E+01   2.5235334186E+01   1.0500000000E-01     0.000  -1.
-13    1    7    0    0    0  -1.0458282736E+01  -1.9249710779E+01   2.5423962529E+01   3.3560630783E+01   1.0500000000E-01     0.000   1.
13    1    9    0    0    0   1.1109124173E+01   2.2944483718E+01  -1.1977762888E+01   2.8166288392E+01   1.0500000000E-01     0.000   1.
-13    1    9    0    0    0   9.2557849215E+00   1.9142028855E+01  -9.8554821419E+00   2.3435621955E+01   1.0500000000E-01     0.000  -1.
</event>
<event>
 13   1  9.2978750E-05  1.2500000E+02  7.5467720E-03  1.2380620E-01
   21   -1    0    0  502  501   0.0000000000E+00   0.0000000000E+00   1.6157095798E+01   1.6157095798E+01   0.0000000000E+00     0.000   1.
   21   -1    0    0  501  502   0.0000000000E+00   0.0000000000E+00  -2.4176684034E+02   2.4176684034E+02   0.0000000000E+00     0.000   1.
   25    2    1    2    0    0   0.0000000000E+00   0.0000000000E+00  -2.2560974454E+02   2.5792393613E+02   1.2500000000E+02  3.724E-09  -1.
3000002    2    3    0    0    0  -3.1465223254E+01  -6.0748773582E+00  -2.2158466394E+02   2.2411320288E+02   1.0000000000E+01  2.381E-10  -1.
3000002    2    3    0    0    0   3.1465223254E+01   6.0748773582E+00  -4.0250805990E+00   3.3810733254E+01   1.0000000000E+01  7.482E-11  -1.
3000001    1    4    0    0    0  -2.3289419294E+01  -3.8120631958E+00  -1.8776742629E+02   1.8924728599E+02   1.0000000000E+00     0.000  -1.
3000022   2   4   0   0   0   -8.1758039603E+00   -2.2628141623E+00   -3.3817237650E+01   3.4865916890E+01   2.5000000000E-01   1.012235E+01   0.
3000001    1    5    0    0    0   2.2711421417E+01  -3.8568582565E-02  -4.2543563302E+00   2.3128114884E+01   1.0000000000E+00     0.000  -1.
3000022   2   5   0   0   0   8.7538018373E+00   6.1134459407E+00   2.2927573115E-01   1.0682618370E+01   2.5000000000E-01   2.105012E+00   0.
13    1    7    0    0    0  -5.4820971925E+00  -1.5683092342E+00  -2.2649854054E+01   2.3356795524E+01   1.0500000000E-01     0.000  -1.
-13    1    7    0    0    0  -2.6937067678E+00  -6.9450492811E-01  -1.1167383596E+01   1.1509121366E+01   1.0500000000E-01     0.000   1.
13    1    9    0    0    0   5.7933408077E+00   3.9818751467E+00   1.3433472119E-01   7.0318701791E+00   1.0500000000E-01     0.000   1.
-13    1    9    0    0    0   2.9604610296E+00   2.1315707940E+00   9.4941009961E-02   3.6507481908E+00   1.0500000000E-01     0.000  -1.
</event>
<event>
 13   1  9.2978750E-05  1.2500000E+02  7.5467720E-03  1.2380620E-01
   21   -1    0    0  502  501   0.0000000000E+00   0.0000000000E+00   2.9329773321E+01   2.9329773321E+01   0.0000000000E+00     0.000   1.
   21   -1    0    0  501  502   0.0000000000E+00   0.0000000000E+00  -1.3318377736E+02   1.3318377736E+02   0.0000000000E+00     0.000   1.
   25    2    1    2    0    0   0.0000000000E+00   0.0000000000E+00  -1.0385400404E+02   1.6251355068E+02   1.2500000000E+02  6.632E-09  -1.
3000002    2    3    0    0    0  -9.7690898838E+00   3.7669193656E+01  -1.1416739863E+02   1.2103139336E+02   1.0000000000E+01  1.342E-09  -1.
3000002    2    3    0    0    0   9.7690898838E+00  -3.7669193656E+01   1.0313394594E+01   4.1482157320E+01   1.0000000000E+01  1.141E-09  -1.
3000001    1    4    0    0    0  -2.0743634757E+00   2.2140825284E+01  -5.3751833387E+01   5.8178851145E+01   1.0000000000E+00     0.000   1.
3000022   2   4   0   0   0   -7.6947264081E+00   1.5528368371E+01   -6.0415565247E+01   6.2852542215E+01   2.5000000000E-01   2.390999E+00   0.
3000001    1    5    0    0    0   7.6566236913E+00  -2.1306298899E+01   1.3460057749E+00   2.2702290428E+01   1.0000000000E+00     0.000   1.
3000022   2   5   0   0   0   2.1124661925E+00   -1.6362894757E+01   8.9673888195E+00   1.8779866892E+01   2.5000000000E-01   2.563658E+00   0.
13    1    7    0    0    0  -5.3574206867E+00   1.0895841889E+01  -4.2229909115E+01   4.3940841774E+01   1.0500000000E-01     0.000  -1.
-13    1    7    0    0    0  -2.3373057214E+00   4.6325264826E+00  -1.8185656132E+01   1.8911700442E+01   1.0500000000E-01     0.000   1.
13    1    9    0    0    0   1.5364380491E+00  -1.1739348689E+01   6.3949092021E+00   1.3456553727E+01   1.0500000000E-01     0.000  -1.
-13    1    9    0    0    0   5.7602814337E-01  -4.6235460681E+00   2.5724796174E+00   5.3233131645E+00   1.0500000000E-01     0.000   1.
</event>
<event>
 13   1  9.2978750E-05  1.2500000E+02  7.5467720E-03  1.2380620E-01
   21   -1    0    0  502  501   0.0000000000E+00   0.0000000000E+00   1.1207849106E+01   1.1207849106E+01   0.0000000000E+00     0.000  -1.
   21   -1    0    0  501  502   0.0000000000E+00   0.0000000000E+00  -3.4852806843E+02   3.4852806843E+02   0.0000000000E+00     0.000  -1.
   25    2    1    2    0    0   0.0000000000E+00   0.0000000000E+00  -3.3732021932E+02   3.5973591753E+02   1.2500000000E+02  5.032E-08  -1.
3000002    2    3    0    0    0   6.4944735362E+00  -1.6390561399E+01   1.4865994348E+00   2.0323352759E+01   1.0000000000E+01  2.391E-09  -1.
3000002    2    3    0    0    0  -6.4944735362E+00   1.6390561399E+01  -3.3880681875E+02   3.3941256477E+02   1.0000000000E+01  1.002E-09  -1.
3000001    1    4    0    0    0   4.8789607788E+00  -4.2219907026E+00  -3.0859169447E+00   7.2216582005E+00   1.0000000000E+00     0.000   1.
3000022   2   4   0   0   0   1.6155127573E+00   -1.2168570697E+01   4.5725163796E+00   1.3101694559E+01   2.5000000000E-01   2.727500E+00   0.
3000001    1    5    0    0    0  -6.7924622331E+00   4.7805828097E+00  -1.1456472755E+02   1.1486978851E+02   1.0000000000E+00     0.000   1.
3000022   2   5   0   0   0   2.9798869691E-01   1.1609978590E+01   -2.2424209121E+02   2.2454277626E+02   2.5000000000E-01   6.549929E+00   0.
13    1    7    0    0    0   8.9336260090E-01  -6.5317699616E+00   2.5217448004E+00   7.0592023208E+00   1.0500000000E-01     0.000  -1.
-13    1    7    0    0    0   7.2215015646E-01  -5.6368007352E+00   2.0507715792E+00   6.0424922380E+00   1.0500000000E-01     0.000   1.
13    1    9    0    0    0   7.0996510137E-02   2.6579225630E+00  -5.1395821457E+01   5.1464658564E+01   1.0500000000E-01     0.000  -1.
-13    1    9    0    0    0   2.2699218677E-01   8.9520560266E+00  -1.7284626975E+02   1.7307811769E+02   1.0500000000E-01     0.000   1.
</event>
<event>
 13   1  9.2978750E-05  1.2500000E+02  7.5467720E-03  1.2380620E-01
   21   -1    0    0  502  501   0.0000000000E+00   0.0000000000E+00   1.2598579550E+02   1.2598579550E+02   0.0000000000E+00     0.000   1.
   21   -1    0    0  501  502   0.0000000000E+00   0.0000000000E+00  -3.1005479502E+01   3.1005479502E+01   0.0000000000E+00     0.000   1.
   25    2    1    2    0    0   0.0000000000E+00   0.0000000000E+00   9.4980316001E+01   1.5699127500E+02   1.2500000000E+02  1.218E-10  -1.
3000002    2    3    0    0    0   4.7308005743E+01  -3.4126694370E+01   7.2720646153E+01   9.3760178396E+01   1.0000000000E+01  1.193E-10  -1.
3000002    2    3    0    0    0  -4.7308005743E+01   3.4126694370E+01   2.2259669848E+01   6.3231096604E+01   1.0000000000E+01  1.951E-10  -1.
3000001    1    4    0    0    0   2.6020105397E+01  -1.9573950615E+01   3.2749117455E+01   4.6191883720E+01   1.0000000000E+00     0.000  -1.
3000022   2   4   0   0   0   2.1287900346E+01   -1.4552743755E+01   3.9971528697E+01   4.7568294676E+01   2.5000000000E-01   8.563870E+00   0.
3000001    1    5    0    0    0  -2.7653270185E+01   1.5900200436E+01   8.1511517806E+00   3.2938746199E+01   1.0000000000E+00     0.000  -1.
3000022   2   5   0   0   0   -1.9654735558E+01   1.8226493934E+01   1.4108518068E+01   3.0292350405E+01   2.5000000000E-01   1.251969E+01   0.
13    1    7    0    0    0   7.4947678329E+00  -5.1879213136E+00   1.4091117396E+01   1.6782630512E+01   1.0500000000E-01     0.000  -1.
-13    1    7    0    0    0   1.3793132513E+01  -9.3648224418E+00   2.5880411301E+01   3.0785664164E+01   1.0500000000E-01     0.000   1.
13    1    9    0    0    0  -8.6847711998E+00   8.1315424212E+00   6.3002281466E+00   1.3462954083E+01   1.0500000000E-01     0.000   1.
-13    1    9    0    0    0  -1.0969964358E+01   1.0094951513E+01   7.8082899213E+00   1.6829396322E+01   1.0500000000E-01     0.000  -1.
</event>
<event>
 13   1  9.2978750E-05  1.2500000E+02  7.5467720E-03  1.2380620E-01
   21   -1    0    0  502  501   0.0000000000E+00   0.0000000000E+00   1.3603396756E+02   1.3603396756E+02   0.0000000000E+00     0.000  -1.
   21   -1    0    0  501  502   0.0000000000E+00   0.0000000000E+00  -2.8715254506E+01   2.8715254506E+01   0.0000000000E+00     0.000  -1.
   25    2    1    2    0    0   0.0000000000E+00   0.0000000000E+00   1.0731871306E+02   1.6474922207E+02   1.2500000000E+02  1.631E-09  -1.
3000002    2    3    0    0    0   2.5516114581E+01   5.1736645262E+00   1.2737764916E+02   1.3039518555E+02   1.0000000000E+01  1.226E-10  -1.
3000002    2    3    0    0    0  -2.5516114581E+01  -5.1736645262E+00  -2.0058936101E+01   3.4354036523E+01   1.0000000000E+01  9.406E-11  -1.
3000001    1    4    0    0    0   1.4939282890E+00  -1.4525716578E+00   2.1519238571E+01   2.1642999211E+01   1.0000000000E+00     0.000  -1.
3000022   2   4   0   0   0   2.4022186292E+01   6.6262361840E+00   1.0585841059E+02   1.0875218634E+02   2.5000000000E-01   1.087518E+00   0.
3000001    1    5    0    0    0  -4.9338331286E+00   2.1210421805E+00  -7.1071612442E+00   8.9639985622E+00   1.0000000000E+00     0.000   1.
3000022   2   5   0   0   0   -2.0582281453E+01   -7.2947067068E+00   -1.2951774857E+01   2.5390037961E+01   2.5000000000E-01   2.208465E-01   0.
13    1    7    0    0    0   7.0663133029E+00   1.9652566294E+00   3.1340209698E+01   3.2187183571E+01   1.0500000000E-01     0.000  -1.
-13    1    7    0    0    0   1.6955872989E+01   4.6609795545E+00   7.4518200892E+01   7.6565002765E+01   1.0500000000E-01     0.000   1.
13    1    9    0    0    0  -7.0662660713E+00  -2.5129092524E+00  -4.3848027518E+00   8.6881729537E+00   1.0500000000E-01     0.000  -1.
-13    1    9    0    0    0  -1.3516015381E+01  -4.7817974544E+00  -8.5669721050E+00   1.6701865008E+01   1.0500000000E-01     0.000   1.
</event>
<event>
 13   1  9.2978750E-05  1.2500000E+02  7.5467720E-03  1.2380620E-01
   21   -1    0    0  502  501   0.0000000000E+00   0.0000000000E+00   1.0512554983E+02   1.0512554983E+02   0.0000000000E+00     0.000  -1.
   21   -1    0    0  501  502   0.0000000000E+00   0.0000000000E+00  -3.7157950720E+01   3.7157950720E+01   0.0000000000E+00     0.000  -1.
   25    2    1    2    0    0   0.0000000000E+00   0.0000000000E+00   6.7967599111E+01   1.4228350055E+02   1.2500000000E+02  3.857E-09  -1.
3000002    2    3    0    0    0   2.4680634477E+01  -5.0169478391E+00  -3.0123496048E+01   4.0518248950E+01   1.0000000000E+01  8.199E-11  -1.
3000002    2    3    0    0    0  -2.4680634477E+01   5.0169478391E+00   9.8091095159E+01   1.0176525160E+02   1.0000000000E+01  4.673E-10  -1.
3000001    1    4    0    0    0   2.1067633911E+01  -2.2205742789E+00  -2.8778990932E+01   3.5749216324E+01   1.0000000000E+00     0.000  -1.
3000022   2   4   0   0   0   3.6130005658E+00   -2.7963735602E+00   -1.3445051163E+00   4.7690326257E+00   2.5000000000E-01   3.109450E+00   0.
3000001    1    5    0    0    0  -1.6526456088E+01   4.7815339784E+00   4.7702134603E+01   5.0719626021E+01   1.0000000000E+00     0.000  -1.
3000022   2   5   0   0   0   -8.1541783882E+00   2.3541386070E-01   5.0388960556E+01   5.1045625579E+01   2.5000000000E-01   3.831690E+00   0.
13    1    7    0    0    0   8.6159032178E-01  -6.9218045030E-01  -3.3332889145E-01   1.1591310574E+00   1.0500000000E-01     0.000  -1.
-13    1    7    0    0    0   2.7514102441E+00  -2.1041931099E+00  -1.0111762248E+00   3.6099015683E+00   1.0500000000E-01     0.000   1.
13    1    9    0    0    0  -4.3456392531E+00   1.8184075678E-01   2.7092733496E+01   2.7439841105E+01   1.0500000000E-01     0.000   1.
-13    1    9    0    0    0  -3.8085391351E+00   5.3573103921E-02   2.3296227060E+01   2.3605784474E+01   1.0500000000E-01     0.000  -1.
</event>
<event>
 13   1  9.2978750E-05  1.2500000E+02  7.5467720E-03  1.2380620E-01
   21   -1    0    0  502  501   0.0000000000E+00   0.0000000000E+00   5.1288543109E+00   5.1288543109E+00   0.0000000000E+00     0.000   1.
   21   -1    0    0  501  502   0.0000000000E+00   0.0000000000E+00  -7.6162233575E+02   7.6162233575E+02   0.0000000000E+00     0.000   1.
   25    2    1    2    0    0   0.0000000000E+00   0.0000000000E+00  -7.5649348144E+02   7.6675119006E+02   1.2500000000E+02  6.530E-08  -1.
3000002    2    3    0    0    0  -2.6210000808E+01   1.9319423168E+01  -5.6807917396E+01   6.6237026902E+01   1.0000000000E+01  2.610E-10   1.
3000002    2    3    0    0    0   2.6210000808E+01  -1.9319423168E+01  -6.9968556404E+02   7.0051416316E+02   1.0000000000E+01  3.737E-09   1.
3000001    1    4    0    0    0  -7.3345987647E+00   9.5063854680E+00  -2.7476392296E+01   3.0001997222E+01   1.0000000000E+00     0.000   1.
3000022   2   4   0   0   0   -1.8875402043E+01   9.8130377002E+00   -2.9331525101E+01   3.6235029680E+01   2.5000000000E-01   3.367461E+00   0.
3000001    1    5    0    0    0   2.4793429769E+01  -1.4192314523E+01  -5.6361317556E+02   5.6433761846E+02   1.0000000000E+00     0.000   1.
3000022   2   5   0   0   0   1.4165710389E+00   -5.1271086454E+00   -1.3607238849E+02   1.3617654470E+02   2.5000000000E-01   5.332473E+00   0.
13    1    7    0    0    0  -8.2660963743E+00   4.2801675585E+00  -1.2725075438E+01   1.5766634184E+01   1.0500000000E-01     0.000   1.
-13    1    7    0    0    0  -1.0609305669E+01   5.5328701417E+00  -1.6606449663E+01   2.0468395496E+01   1.0500000000E-01     0.000  -1.
13    1    9    0    0    0   5.5287021895E-01  -2.0309565767E+00  -5.2287700635E+01   5.2330154909E+01   1.0500000000E-01     0.000   1.
-13    1    9    0    0    0   8.6370081996E-01  -3.0961520687E+00  -8.3784687853E+01   8.3846389787E+01   1.0500000000E-01     0.000  -1.
</event>
<event>
 13   1  9.2978750E-05  1.2500000E+02  7.5467720E-03  1.2380620E-01
   21   -1    0    0  502  501   0.0000000000E+00   0.0000000000E+00   4.8725717824E+00   4.8725717824E+00   0.0000000000E+00     0.000  -1.
   21   -1    0    0  501  502   0.0000000000E+00   0.0000000000E+00  -8.0168136550E+02   8.0168136550E+02   0.0000000000E+00     0.000  -1.
   25    2    1    2    0    0   0.0000000000E+00   0.0000000000E+00  -7.9680879372E+02   8.0655393728E+02   1.2500000000E+02  4.762E-08  -1.
3000002    2    3    0    0    0  -3.2287344883E+01  -2.7315374113E+01  -6.8823622124E+02   6.8960691595E+02   1.0000000000E+01  3.848E-11   1.
3000002    2    3    0    0    0   3.2287344883E+01   2.7315374113E+01  -1.0857257248E+02   1.1694702133E+02   1.0000000000E+01  8.289E-11   1.
3000001    1    4    0    0    0  -2.1400702094E+01  -2.1767121880E+01  -4.3117784046E+02   4.3225817257E+02   1.0000000000E+00     0.000   1.
3000022   2   4   0   0   0   -1.0886642790E+01   -5.5482522337E+00   -2.5705838077E+02   2.5734874338E+02   2.5000000000E-01   1.189628E+01   0.
3000001    1    5    0    0    0   1.4599173502E+01   1.8677509918E+01  -6.1964305771E+01   6.6351792992E+01   1.0000000000E+00     0.000  -1.
3000022   2   5   0   0   0   1.7688171381E+01   8.6378641952E+00   -4.6608266714E+01   5.0595228339E+01   2.5000000000E-01   2.298229E+00   0.
13    1    7    0    0    0  -3.1145912140E+00  -1.5813897599E+00  -7.4379164510E+01   7.4461215477E+01   1.0500000000E-01     0.000  -1.
-13    1    7    0    0    0  -7.7720515757E+00  -3.9668624738E+00  -1.8267921626E+02   1.8288752790E+02   1.0500000000E-01     0.000   1.
13    1    9    0    0    0   5.8048991775E+00   2.8474657731E+00  -1.5178535159E+01   1.6498602073E+01   1.0500000000E-01     0.000  -1.
-13    1    9    0    0    0   1.1883272204E+01   5.7903984221E+00  -3.1429731555E+01   3.4096626266E+01   1.0500000000E-01     0.000   1.
</event>
<event>
 13   1  9.2978750E-05  1.2500000E+02  7.5467720E-03  1.2380620E-01
   21   -1    0    0  502  501   0.0000000000E+00   0.0000000000E+00   6.0050332953E+01   6.0050332953E+01   0.0000000000E+00     0.000   1.
   21   -1    0    0  501  502   0.0000000000E+00   0.0000000000E+00  -6.5049597694E+01   6.5049597694E+01   0.0000000000E+00     0.000   1.
   25    2    1    2    0    0   0.0000000000E+00   0.0000000000E+00  -4.9992647411E+00   1.2509993065E+02   1.2500000000E+02  1.723E-08  -1.
3000002    2    3    0    0    0  -5.1154038493E+01  -3.4148582508E+01  -7.3396808738E+00   6.2743384168E+01   1.0000000000E+01  1.859E-10   1.
3000002    2    3    0    0    0   5.1154038493E+01   3.4148582508E+01   2.3404161327E+00   6.2356546482E+01   1.0000000000E+01  7.774E-10   1.
3000001    1    4    0    0    0  -3.9987339634E+01  -2.8385855019E+01  -2.0042482816E+00   4.9089317650E+01   1.0000000000E+00     0.000   1.
3000022   2   4   0   0   0   -1.1166698859E+01   -5.7627274899E+00   -5.3354325922E+00   1.3654066518E+01   2.5000000000E-01   6.265727E+00   0.
3000001    1    5    0    0    0   1.1135764249E+01   5.3839561144E+00   4.0185904569E+00   1.3043822220E+01   1.0000000000E+00     0.000   1.
3000022   2   5   0   0   0   4.0018274244E+01   2.8764626394E+01   -1.6781743242E+00   4.9312724262E+01   2.5000000000E-01   4.053845E+01   0.
13    1    7    0    0    0  -6.3293523456E+00  -3.1929308063E+00  -2.9996197136E+00   7.6983278493E+00   1.0500000000E-01     0.000  -1.
-13    1    7    0    0    0  -4.8373465138E+00  -2.5697966835E+00  -2.3358128786E+00   5.9557386690E+00   1.0500000000E-01     0.000   1.
13    1    9    0    0    0   1.9275872113E+01   1.3934161571E+01  -8.3172526412E-01   2.3799640676E+01   1.0500000000E-01     0.000   1.
-13    1    9    0    0    0   2.0742402131E+01   1.4830464823E+01  -8.4644906008E-01   2.5513083586E+01   1.0500000000E-01     0.000  -1.
</event>
<event>
 13   1  9.2978750E-05  1.2500000E+02  7.5467720E-03  1.2380620E-01
   21   -1    0    0  502  501   0.0000000000E+00   0.0000000000E+00   6.3159179605E+01   6.3159179605E+01   0.0000000000E+00     0.000   1.
   21   -1    0    0  501  502   0.0000000000E+00   0.0000000000E+00  -6.1847700119E+01   6.1847700119E+01   0.0000000000E+00     0.000   1.
   25    2    1    2    0    0   0.0000000000E+00   0.0000000000E+00   1.3114794856E+00   1.2500687972E+02   1.2500000000E+02  1.040E-07  -1.
3000002    2    3    0    0    0  -3.9116748608E+01  -2.3933264917E+01  -4.0617935990E+01   6.2070427060E+01   1.0000000000E+01  3.698E-10   1.
3000002    2    3    0    0    0   3.9116748608E+01   2.3933264917E+01   4.1929415476E+01   6.2936452660E+01   1.0000000000E+01  5.510E-10   1.
3000001    1    4    0    0    0  -1.8848602006E+01  -5.8899041756E+00  -1.8133191142E+01   2.6828592766E+01   1.0000000000E+00     0.000  -1.
3000022   2   4   0   0   0   -2.0268146602E+01   -1.8043360742E+01   -2.2484744848E+01   3.5241834294E+01   2.5000000000E-01   5.136019E+00   0.
3000001    1    5    0    0    0   1.7396269375E+01   6.9312883335E+00   2.1986957493E+01   2.8898083776E+01   1.0000000000E+00     0.000   1.
3000022   2   5   0   0   0   2.1720479233E+01   1.7001976584E+01   1.9942457982E+01   3.4038368884E+01   2.5000000000E-01   4.590846E-01   0.
13    1    7    0    0    0  -8.8319306815E+00  -7.8388810634E+00  -9.7025390807E+00   1.5284022556E+01   1.0500000000E-01     0.000  -1.
-13    1    7    0    0    0  -1.1436215921E+01  -1.0204479678E+01  -1.2782205767E+01   1.9957811738E+01   1.0500000000E-01     0.000   1.
13    1    9    0    0    0   1.3698990364E+01   1.0732744029E+01   1.2509007877E+01   2.1432228873E+01   1.0500000000E-01     0.000   1.
-13    1    9    0    0    0   8.0214888697E+00   6.2692325546E+00   7.4334501052E+00   1.2606140011E+01   1.0500000000E-01     0.000  -1.
</event>
<event>
 13   1  9.2978750E-05  1.2500000E+02  7.5467720E-03  1.2380620E-01
   21   -1    0    0  502  501   0.0000000000E+00   0.0000000000E+00   2.6846105203E+01   2.6846105203E+01   0.0000000000E+00     0.000  -1.
   21   -1    0    0  501  502   0.0000000000E+00   0.0000000000E+00  -1.4550527797E+02   1.4550527797E+02   0.0000000000E+00     0.000  -1.
   25    2    1    2    0    0   0.0000000000E+00   0.0000000000E+00  -1.1865917277E+02   1.7235138317E+02   1.2500000000E+02  1.170E-08  -1.
3000002    2    3    0    0    0   5.8637344644E+01  -1.5045056852E+01  -4.2924743049E+01   7.4881409498E+01   1.0000000000E+01  3.552E-10  -1.
3000002    2    3    0    0    0  -5.8637344644E+01   1.5045056852E+01  -7.5734429721E+01   9.7469973672E+01   1.0000000000E+01  1.145E-09  -1.
3000001    1    4    0    0    0   2.5835253666E+01  -5.6788838900E+00  -1.2947438205E+01   2.9467714711E+01   1.0000000000E+00     0.000  -1.
3000022   2   4   0   0   0   3.2802090977E+01   -9.3661729621E+00   -2.9977304844E+01   4.5413694786E+01   2.5000000000E-01   5.184859E+00   0.
3000001    1    5    0    0    0  -5.8365734143E+01   1.3784503879E+01  -7.4687034702E+01   9.5790002724E+01   1.0000000000E+00     0.000  -1.
3000022   2   5   0   0   0   -2.7161050046E-01   1.2605529732E+00   -1.0473950188E+00   1.6799709484E+00   2.5000000000E-01   3.917836E+00   0.
13    1    7    0    0    0   8.5827023303E+00  -2.4844309686E+00  -7.8546890035E+00   1.1897156840E+01   1.0500000000E-01     0.000  -1.
-13    1    7    0    0    0   2.4219388647E+01  -6.8817419936E+00  -2.2122615840E+01   3.3516537947E+01   1.0500000000E-01     0.000   1.
13    1    9    0    0    0  -7.3732651909E-02   2.8942258341E-01  -2.3789322887E-01   3.9600520714E-01   1.0500000000E-01     0.000   1.
-13    1    9    0    0    0  -1.9787784855E-01   9.7113038975E-01  -8.0950178993E-01   1.2839657413E+00   1.0500000000E-01     0.000  -1.
</event>
<event>
 13   1  9.2978750E-05  1.2500000E+02  7.5467720E-03  1.2380620E-01
   21   -1    0    0  502  501   0.0000000000E+00   0.0000000000E+00   3.9274655514E+01   3.9274655514E+01   0.0000000000E+00     0.000   1.
   21   -1    0    0  501  502   0.0000000000E+00   0.0000000000E+00  -9.9459815722E+01   9.9459815722E+01   0.0000000000E+00     0.000   1.
   25    2    1    2    0    0   0.0000000000E+00   0.0000000000E+00  -6.0185160208E+01   1.3873447124E+02   1.2500000000E+02  2.278E-08  -1.
3000002    2    3    0    0    0  -3.2515388781E+01  -4.9567130650E+01  -1.1123798173E+01   6.1138284522E+01   1.0000000000E+01  1.979E-09   1.
3000002    2    3    0    0    0   3.2515388781E+01   4.9567130650E+01  -4.9061362035E+01   7.7596186718E+01   1.0000000000E+01  1.880E-09   1.
3000001    1    4    0    0    0  -4.2464939910E+00  -1.2158660545E+01   1.2709256070E-01   1.2918277361E+01   1.0000000000E+00     0.000  -1.
3000022   2   4   0   0   0   -2.8268894790E+01   -3.7408470105E+01   -1.1250890734E+01   4.8220007161E+01   2.5000000000E-01   8.429425E+00   0.
3000001    1    5    0    0    0   2.6295067907E+01   4.1022602380E+01  -3.4992556196E+01   5.9998029063E+01   1.0000000000E+00     0.000  -1.
3000022   2   5   0   0   0   6.2203208744E+00   8.5445282698E+00   -1.4068805839E+01   1.7598157656E+01   2.5000000000E-01   5.842106E-02   0.
13    1    7    0    0    0  -2.0172812426E+01  -2.6701896029E+01  -8.0727055378E+00   3.4425473307E+01   1.0500000000E-01     0.000  -1.
-13    1    7    0    0    0  -8.0960823640E+00  -1.0706574076E+01  -3.1781851959E+00   1.3794533853E+01   1.0500000000E-01     0.000   1.
13    1    9    0    0    0   2.3243990637E+00   3.2711511188E+00  -5.4084180296E+00   6.7353746171E+00   1.0500000000E-01     0.000  -1.
-13    1    9    0    0    0   3.8959218107E+00   5.2733771510E+00  -8.6603878093E+00   1.0862783038E+01   1.0500000000E-01     0.000   1.
</event>
<event>
 13   1  9.2978750E-05  1.2500000E+02  7.5467720E-03  1.2380620E-01
   21   -1    0    0  502  501   0.0000000000E+00   0.0000000000E+00   7.2889051437E+00   7.2889051437E+00   0.0000000000E+00     0.000  -1.
   21   -1    0    0  501  502   0.0000000000E+00   0.0000000000E+00  -5.3591724998E+02   5.3591724998E+02   0.0000000000E+00     0.000  -1.
   25    2    1    2    0    0   0.0000000000E+00   0.0000000000E+00  -5.2862834484E+02   5.4320615512E+02   1.2500000000E+02  1.477E-08  -1.
3000002    2    3    0    0    0   9.5738845300E+00   5.9200447914E+01  -3.2727327212E+02   3.3287256862E+02   1.0000000000E+01  1.477E-10   1.
3000002    2    3    0    0    0  -9.5738845300E+00  -5.9200447914E+01  -2.0135507272E+02   2.1033358650E+02   1.0000000000E+01  1.442E-10   1.
3000001    1    4    0    0    0   9.8461789889E+00   4.1534813812E+01  -2.4854108817E+02   2.5218199878E+02   1.0000000000E+00     0.000   1.
3000022   2   4   0   0   0   -2.7229445886E-01   1.7665634102E+01   -7.8732183951E+01   8.0690569847E+01   2.5000000000E-01   9.256069E+00   0.
3000001    1    5    0    0    0   8.1061621400E-01  -2.5482632913E+01  -8.5071715018E+01   8.8815642625E+01   1.0000000000E+00     0.000   1.
3000022   2   5   0   0   0   -1.0384500744E+01   -3.3717815001E+01   -1.1628335770E+02   1.2151794387E+02   2.5000000000E-01   2.211092E+01   0.
13    1    7    0    0    0  -5.6537496989E-02   4.1297686136E+00  -1.8459337106E+01   1.8916033852E+01   1.0500000000E-01     0.000   1.
-13    1    7    0    0    0  -2.1575696187E-01   1.3535865488E+01  -6.0272846845E+01   6.1774535995E+01   1.0500000000E-01     0.000  -1.
13    1    9    0    0    0  -4.8736680058E+00  -1.6033124774E+01  -5.5134801638E+01   5.7625264481E+01   1.0500000000E-01     0.000   1.
-13    1    9    0    0    0  -5.5108327382E+00  -1.7684690227E+01  -6.1148556066E+01   6.3892679392E+01   1.0500000000E-01     0.000  -1.
</event>
<event>
 13   1  9.2978750E-05  1.2500000E+02  7.5467720E-03  1.2380620E-01
   21   -1    0    0  502  501   0.0000000000E+00   0.0000000000E+00   3.4958040436E+02   3.4958040436E+02   0.0000000000E+00     0.000   1.
   21   -1    0    0  501  502   0.0000000000E+00   0.0000000000E+00  -1.1174110309E+01   1.1174110309E+01   0.0000000000E+00     0.000   1.
   25    2    1    2    0    0   0.0000000000E+00   0.0000000000E+00   3.3840629405E+02   3.6075451467E+02   1.2500000000E+02  7.806E-08  -1.
3000002    2    3    0    0    0  -2.8427829112E+00  -5.2824702186E+01   2.6081919986E+02   2.6631782815E+02   1.0000000000E+01  4.373E-10   1.
3000002    2    3    0    0    0   2.8427829112E+00   5.2824702186E+01   7.7587094189E+01   9.4436686517E+01   1.0000000000E+01  1.251E-09   1.
3000001    1    4    0    0    0   1.2476851720E+00  -5.3923480119E+00   1.7397528713E+01   1.8284095293E+01   1.0000000000E+00     0.000  -1.
3000022   2   4   0   0   0   -4.0904680832E+00   -4.7432354174E+01   2.4342167115E+02   2.4803373286E+02   2.5000000000E-01   2.782893E-01   0.
3000001    1    5    0    0    0   1.0099478788E+00   5.9557523691E+00   1.5174852464E+01   1.6363591547E+01   1.0000000000E+00     0.000  -1.
3000022   2   5   0   0   0   1.8328350324E+00   4.6868949817E+01   6.2412241725E+01   7.8073094971E+01   2.5000000000E-01   1.765805E-01   0.
13    1    7    0    0    0  -2.1804436304E+00  -2.5100511945E+01   1.2916351500E+02   1.3159792805E+02   1.0500000000E-01     0.000  -1.
-13    1    7    0    0    0  -1.9100244528E+00  -2.2331842229E+01   1.1425815615E+02   1.1643580481E+02   1.0500000000E-01     0.000   1.
13    1    9    0    0    0   1.0166065972E+00   2.5133900065E+01   3.3374029365E+01   4.1792143790E+01   1.0500000000E-01     0.000   1.
-13    1    9    0    0    0   8.1622843520E-01   2.1735049752E+01   2.9038212360E+01   3.6280951181E+01   1.0500000000E-01     0.000  -1.
</event>
<event>
 13   1  9.2978750E-05  1.2500000E+02  7.5467720E-03  1.2380620E-01
   21   -1    0    0  502  501   0.0000000000E+00   0.0000000000E+00   3.1537819948E+01   3.1537819948E+01   0.0000000000E+00     0.000   1.
   21   -1    0    0  501  502   0.0000000000E+00   0.0000000000E+00  -1.2385922700E+02   1.2385922700E+02   0.0000000000E+00     0.000   1.
   25    2    1    2    0    0   0.0000000000E+00   0.0000000000E+00  -9.2321407049E+01   1.5539704695E+02   1.2500000000E+02  3.071E-09  -1.
3000002    2    3    0    0    0   2.6790987236E+01  -9.8669799330E+00  -1.1415160625E+02   1.1809192817E+02   1.0000000000E+01  5.433E-10  -1.
3000002    2    3    0    0    0  -2.6790987236E+01   9.8669799330E+00   2.1830199199E+01   3.7305118780E+01   1.0000000000E+01  3.058E-10  -1.
3000001    1    4    0    0    0   1.8474993050E+01  -1.0523365119E+01  -7.0240376084E+01   7.3394666115E+01   1.0000000000E+00     0.000   1.
3000022   2   4   0   0   0   8.3159941865E+00   6.5638518615E-01   -4.3911230163E+01   4.4697262056E+01   2.5000000000E-01   9.444522E+00   0.
3000001    1    5    0    0    0  -1.5440256543E-01   2.0022588862E+00   5.3475261598E-01   2.3062612948E+00   1.0000000000E+00     0.000  -1.
3000022   2   5   0   0   0   -2.6636584671E+01   7.8647210468E+00   2.1295446583E+01   3.4998857485E+01   2.5000000000E-01   1.625349E+00   0.
13    1    7    0    0    0   4.4366703825E+00   3.8938391206E-01  -2.3735426988E+01   2.4149889921E+01   1.0500000000E-01     0.000  -1.
-13    1    7    0    0    0   3.8793238040E+00   2.6700127409E-01  -2.0175803175E+01   2.0547372134E+01   1.0500000000E-01     0.000   1.
13    1    9    0    0    0  -9.1442893454E+00   2.6811821941E+00   7.3728185244E+00   1.2048910473E+01   1.0500000000E-01     0.000  -1.
-13    1    9    0    0    0  -1.7492295326E+01   5.1835388527E+00   1.3922628058E+01   2.2949947012E+01   1.0500000000E-01     0.000   1.
</event>
<event>
 13   1  9.2978750E-05  1.2500000E+02  7.5467720E-03  1.2380620E-01
   21   -1    0    0  502  501   0.0000000000E+00   0.0000000000E+00   8.5691333190E+02   8.5691333190E+02   0.0000000000E+00     0.000   1.
   21   -1    0    0  501  502   0.0000000000E+00   0.0000000000E+00  -4.5585123426E+00   4.5585123426E+00   0.0000000000E+00     0.000   1.
   25    2    1    2    0    0   0.0000000000E+00   0.0000000000E+00   8.5235481956E+02   8.6147184425E+02   1.2500000000E+02  3.050E-09  -1.
3000002    2    3    0    0    0   5.2271835419E+01   3.1597029472E+01   4.8607361463E+02   4.8999824070E+02   1.0000000000E+01  6.887E-10  -1.
3000002    2    3    0    0    0  -5.2271835419E+01  -3.1597029472E+01   3.6628120493E+02   3.7147360355E+02   1.0000000000E+01  1.993E-09  -1.
3000001    1    4    0    0    0   5.0852665501E+01   2.8753015664E+01   4.4852211100E+02   4.5231163323E+02   1.0000000000E+00     0.000  -1.
3000022   2   4   0   0   0   1.4191699181E+00   2.8440138082E+00   3.7551503632E+01   3.7686607473E+01   2.5000000000E-01   1.430991E+00   0.
3000001    1    5    0    0    0  -3.9331958427E+01  -1.8763306528E+01   2.4967632501E+02   2.5345281986E+02   1.0000000000E+00     0.000   1.
3000022   2   5   0   0   0   -1.2939876992E+01   -1.2833722943E+01   1.1660487992E+02   1.1802078369E+02   2.5000000000E-01   1.596848E+00   0.
13    1    7    0    0    0   1.0707230262E+00   2.0695388625E+00   2.7373482288E+01   2.7472677271E+01   1.0500000000E-01     0.000   1.
-13    1    7    0    0    0   3.4844689185E-01   7.7447494565E-01   1.0178021344E+01   1.0213930202E+01   1.0500000000E-01     0.000  -1.
13    1    9    0    0    0  -8.3502633123E+00  -8.2295827308E+00   7.5293871709E+01   7.6201253738E+01   1.0500000000E-01     0.000  -1.
-13    1    9    0    0    0  -4.5896136801E+00  -4.6041402124E+00   4.1311008215E+01   4.1819529954E+01   1.0500000000E-01     0.000   1.
</event>
<event>
 13   1  9.2978750E-05  1.2500000E+02  7.5467720E-03  1.2380620E-01
   21   -1    0    0  502  501   0.0000000000E+00   0.0000000000E+00   2.2568329266E+01   2.2568329266E+01   0.0000000000E+00     0.000  -1.
   21   -1    0    0  501  502   0.0000000000E+00   0.0000000000E+00  -1.7308547540E+02   1.7308547540E+02   0.0000000000E+00     0.000  -1.
   25    2    1    2    0    0   0.0000000000E+00   0.0000000000E+00  -1.5051714614E+02   1.9565380467E+02   1.2500000000E+02  2.739E-08  -1.
3000002    2    3    0    0    0  -3.8769384852E+01   2.9247204598E+01  -1.5701897977E+01   5.2009746959E+01   1.0000000000E+01  1.781E-09  -1.
3000002    2    3    0    0    0   3.8769384852E+01  -2.9247204598E+01  -1.3481524816E+02   1.4364405771E+02   1.0000000000E+01  6.689E-10  -1.
3000001    1    4    0    0    0  -4.8949921596E-01   2.9073115025E+00  -8.6047397407E-01   3.2299357757E+00   1.0000000000E+00     0.000   1.
3000022   2   4   0   0   0   -3.8279885636E+01   2.6339893096E+01   -1.4841424003E+01   4.8779811183E+01   2.5000000000E-01   4.829913E+00   0.
3000001    1    5    0    0    0   3.2091634471E+01  -2.4965052195E+01  -1.2168080437E+02   1.2829787600E+02   1.0000000000E+00     0.000  -1.
3000022   2   5   0   0   0   6.6777503812E+00   -4.2821524028E+00   -1.3134443792E+01   1.5346181710E+01   2.5000000000E-01   4.005057E+00   0.
13    1    7    0    0    0  -2.8330543463E+01   1.9515618671E+01  -1.0960668817E+01   3.6105766173E+01   1.0500000000E-01     0.000  -1.
-13    1    7    0    0    0  -9.9493421729E+00   6.8242744247E+00  -3.8807551863E+00   1.2674045010E+01   1.0500000000E-01     0.000   1.
13    1    9    0    0    0   2.8798094648E+00  -1.9241274934E+00  -5.7536517986E+00   6.7164799697E+00   1.0500000000E-01     0.000   1.
-13    1    9    0    0    0   3.7979409164E+00  -2.3580249094E+00  -7.3807919933E+00   8.6297017403E+00   1.0500000000E-01     0.000  -1.
</event>
<event>
 13   1  9.2978750E-05  1.2500000E+02  7.5467720E-03  1.2380620E-01
   21   -1    0    0  502  501   0.0000000000E+00   0.0000000000E+00   2.6765874700E+01   2.6765874700E+01   0.0000000000E+00     0.000   1.
   21   -1    0    0  501  502   0.0000000000E+00   0.0000000000E+00  -1.4594142892E+02   1.4594142892E+02   0.0000000000E+00     0.000   1.
   25    2    1    2    0    0   0.0000000000E+00   0.0000000000E+00  -1.1917555422E+02   1.7270730362E+02   1.2500000000E+02  6.002E-08  -1.
3000002    2    3    0    0    0  -8.2216078410E-01   6.0374286992E+01  -4.2082676163E+01   7.4274370487E+01   1.0000000000E+01  2.678E-10   1.
3000002    2    3    0    0    0   8.2216078410E-01  -6.0374286992E+01  -7.7092878057E+01   9.8432933133E+01   1.0000000000E+01  3.664E-11   1.
3000001    1    4    0    0    0  -1.6157609954E+00   1.4005210311E+01  -1.4815968771E+01   2.0476072135E+01   1.0000000000E+00     0.000   1.
3000022   2   4   0   0   0   7.9360021130E-01   4.6369076681E+01   -2.7266707392E+01   5.3798298352E+01   2.5000000000E-01   6.694206E+00   0.
3000001    1    5    0    0    0  -3.5396486799E+00  -1.0814911070E+01  -1.5567714224E+01   1.9309198336E+01   1.0000000000E+00     0.000   1.
3000022   2   5   0   0   0   4.3618094640E+00   -4.9559375922E+01   -6.1525163833E+01   7.9123734797E+01   2.5000000000E-01   2.517105E+00   0.
13    1    7    0    0    0   5.6297598750E-01   3.0014874788E+01  -1.7617078774E+01   3.4807788497E+01   1.0500000000E-01     0.000   1.
-13    1    7    0    0    0   2.3062422380E-01   1.6354201892E+01  -9.6496286184E+00   1.8990509855E+01   1.0500000000E-01     0.000  -1.
13    1    9    0    0    0   2.6915307758E+00  -3.0408263567E+01  -3.7846545696E+01   4.8623850908E+01   1.0500000000E-01     0.000  -1.
-13    1    9    0    0    0   1.6702786882E+00  -1.9151112356E+01  -2.3678618137E+01   3.0499883889E+01   1.0500000000E-01     0.000   1.
</event>
<event>
 13   1  9.2978750E-05  1.2500000E+02  7.5467720E-03  1.2380620E-01
   21   -1    0    0  502  501   0.0000000000E+00   0.0000000000E+00   5.4064049077E+02   5.4064049077E+02   0.0000000000E+00     0.000   1.
   21   -1    0    0  501  502   0.0000000000E+00   0.0000000000E+00  -7.2252264984E+00   7.2252264984E+00   0.0000000000E+00     0.000   1.
   25    2    1    2    0    0   0.0000000000E+00   0.0000000000E+00   5.3341526427E+02   5.4786571727E+02   1.2500000000E+02  1.148E-07  -1.
3000002    2    3    0    0    0   4.2528763415E+01   3.5004290270E+01   1.4490850379E+02   1.5534629229E+02   1.0000000000E+01  3.354E-10  -1.
3000002    2    3    0    0    0  -4.2528763415E+01  -3.5004290270E+01   3.8850676048E+02   3.9251942498E+02   1.0000000000E+01  4.660E-10  -1.
3000001    1    4    0    0    0   1.6336344346E+01   8.5142105186E+00   5.5539125344E+01   5.8523178069E+01   1.0000000000E+00     0.000   1.
3000022   2   4   0   0   0   2.6192419068E+01   2.6490079752E+01   8.9369378451E+01   9.6823114217E+01   2.5000000000E-01   5.278890E+00   0.
3000001    1    5    0    0    0  -2.9891138262E+01  -2.4852601082E+01   3.0345063222E+02   3.0593204821E+02   1.0000000000E+00     0.000   1.
3000022   2   5   0   0   0   -1.2637625153E+01   -1.0151689189E+01   8.5056128252E+01   8.6587376771E+01   2.5000000000E-01   2.271712E+00   0.
13    1    7    0    0    0   1.2346576598E+01   1.2578976531E+01   4.2333614689E+01   4.5856456055E+01   1.0500000000E-01     0.000   1.
-13    1    7    0    0    0   1.3845842470E+01   1.3911103221E+01   4.7035763762E+01   5.0966658162E+01   1.0500000000E-01     0.000  -1.
13    1    9    0    0    0  -9.5202353463E+00  -7.6776535762E+00   6.4162886695E+01   6.5318208025E+01   1.0500000000E-01     0.000  -1.
-13    1    9    0    0    0  -3.1173898066E+00  -2.4740356125E+00   2.0893241557E+01   2.1269168746E+01   1.0500000000E-01     0.000   1.
</event>
<event>
 13   1  9.2978750E-05  1.2500000E+02  7.5467720E-03  1.2380620E-01
   21   -1    0    0  502  501   0.0000000000E+00   0.0000000000E+00   2.6109473437E+01   2.6109473437E+01   0.0000000000E+00     0.000   1.
   21   -1    0    0  501  502   0.0000000000E+00   0.0000000000E+00  -1.4961044731E+02   1.4961044731E+02   0.0000000000E+00     0.000   1.
   25    2    1    2    0    0   0.0000000000E+00   0.0000000000E+00  -1.2350097387E+02   1.7571992075E+02   1.2500000000E+02  3.200E-08  -1.
3000002    2    3    0    0    0   9.3461879230E+00   5.5246025804E+01  -9.8049997675E+01   1.1337229221E+02   1.0000000000E+01  9.681E-10   1.
3000002    2    3    0    0    0  -9.3461879230E+00  -5.5246025804E+01  -2.5450976195E+01   6.2347628545E+01   1.0000000000E+01  2.580E-10   1.
3000001    1    4    0    0    0   1.0682826041E+01   4.7678469017E+01  -8.8649197702E+01   1.0122766140E+02   1.0000000000E+00     0.000   1.
3000022   2   4   0   0   0   -1.3366381176E+00   7.5675567868E+00   -9.4007999733E+00   1.2144630802E+01   2.5000000000E-01   3.079614E+00   0.
3000001    1    5    0    0    0  -5.5021003922E+00  -4.2817704566E+01  -1.5184072580E+01   4.5773190769E+01   1.0000000000E+00     0.000  -1.
3000022   2   5   0   0   0   -3.8440875307E+00   -1.2428321238E+01   -1.0266903615E+01   1.6574437776E+01   2.5000000000E-01   3.817391E+00   0.
13    1    7    0    0    0  -5.4403985631E-01   2.9009730151E+00  -3.5281980450E+00   4.6011770498E+00   1.0500000000E-01     0.000   1.
-13    1    7    0    0    0  -7.9259826130E-01   4.6665837717E+00  -5.8726019284E+00   7.5434537522E+00   1.0500000000E-01     0.000  -1.
13    1    9    0    0    0  -2.7655937993E+00  -8.8766969918E+00  -7.2899217060E+00   1.1815169996E+01   1.0500000000E-01     0.000   1.
-13    1    9    0    0    0  -1.0784937314E+00  -3.5516242461E+00  -2.9769819092E+00   4.7592677800E+00   1.0500000000E-01     0.000  -1.
</event>
<event>
 13   1  9.2978750E-05  1.2500000E+02  7.5467720E-03  1.2380620E-01
   21   -1    0    0  502  501   0.0000000000E+00   0.0000000000E+00   1.0620180419E+02   1.0620180419E+02   0.0000000000E+00     0.000  -1.
   21   -1    0    0  501  502   0.0000000000E+00   0.0000000000E+00  -3.6781390203E+01   3.6781390203E+01   0.0000000000E+00     0.000  -1.
   25    2    1    2    0    0   0.0000000000E+00   0.0000000000E+00   6.9420413982E+01   1.4298319439E+02   1.2500000000E+02  2.036E-07  -1.
3000002    2    3    0    0    0   2.4517036701E+01  -4.8297030975E+01   9.2138443185E-01   5.5086633940E+01   1.0000000000E+01  9.278E-11  -1.
3000002    2    3    0    0    0  -2.4517036701E+01   4.8297030975E+01   6.8499029550E+01   8.7896560450E+01   1.0000000000E+01  2.063E-09  -1.
3000001    1    4    0    0    0   8.1389566530E+00  -1.8161515037E+01  -4.3176947413E+00   2.0389353391E+01   1.0000000000E+00     0.000   1.
3000022   2   4   0   0   0   1.6378080048E+01   -3.0135515938E+01   5.2390791731E+00   3.4697280549E+01   2.5000000000E-01   1.546320E+00   0.
3000001    1    5    0    0    0  -1.0092868433E+01   3.0343312292E+01   3.7899981773E+01   4.9598298484E+01   1.0000000000E+00     0.000  -1.
3000022   2   5   0   0   0   -1.4424168268E+01   1.7953718682E+01   3.0599047777E+01   3.8298261966E+01   2.5000000000E-01   1.171097E+01   0.
13    1    7    0    0    0   1.1290904665E+01  -2.0860848934E+01   3.5977952099E+00   2.3991971611E+01   1.0500000000E-01     0.000  -1.
-13    1    7    0    0    0   5.0871753834E+00  -9.2746670037E+00   1.6412839632E+00   1.0705308938E+01   1.0500000000E-01     0.000   1.
13    1    9    0    0    0  -5.4058854875E+00   6.6768802037E+00   1.1330899439E+01   1.4219867589E+01   1.0500000000E-01     0.000  -1.
-13    1    9    0    0    0  -9.0182827810E+00   1.1276838479E+01   1.9268148338E+01   2.4078394377E+01   1.0500000000E-01     0.000   1.
</event>
<event>
 13   1  9.2978750E-05  1.2500000E+02  7.5467720E-03  1.2380620E-01
   21   -1    0    0  502  501   0.0000000000E+00   0.0000000000E+00   2.2633362988E+01   2.2633362988E+01   0.0000000000E+00     0.000  -1.
   21   -1    0    0  501  502   0.0000000000E+00   0.0000000000E+00  -1.7258813911E+02   1.7258813911E+02   0.0000000000E+00     0.000  -1.
   25    2    1    2    0    0   0.0000000000E+00   0.0000000000E+00  -1.4995477612E+02   1.9522150210E+02   1.2500000000E+02  1.639E-07  -1.
3000002    2    3    0    0    0  -4.7717072713E+01  -2.0875201799E+01  -1.2662358345E+02   1.3728155362E+02   1.0000000000E+01  3.233E-10   1.
3000002    2    3    0    0    0   4.7717072713E+01   2.0875201799E+01  -2.3331192669E+01   5.7939948480E+01   1.0000000000E+01  7.195E-10   1.
3000001    1    4    0    0    0  -2.0952541683E+01  -1.4555600470E+01  -6.0469171562E+01   6.5638366962E+01   1.0000000000E+00     0.000  -1.
3000022   2   4   0   0   0   -2.6764531031E+01   -6.3196013292E+00   -6.6154411888E+01   7.1643186658E+01   2.5000000000E-01   6.968479E+00   0.
3000001    1    5    0    0    0   3.0503095276E+01   1.3081734519E+01  -1.9964596009E+01   3.8744750525E+01   1.0000000000E+00     0.000  -1.
3000022   2   5   0   0   0   1.7213977437E+01   7.7934672800E+00   -3.3665966607E+00   1.9195197955E+01   2.5000000000E-01   3.315060E+00   0.
13    1    7    0    0    0  -8.5264315944E+00  -2.0020677601E+00  -2.1197973353E+01   2.2936290248E+01   1.0500000000E-01     0.000  -1.
-13    1    7    0    0    0  -1.8238099436E+01  -4.3175335691E+00  -4.4956438535E+01   4.8706896410E+01   1.0500000000E-01     0.000   1.
13    1    9    0    0    0   6.8185228288E+00   3.1536027554E+00  -1.3219290448E+00   7.6286293202E+00   1.0500000000E-01     0.000   1.
-13    1    9    0    0    0   1.0395454609E+01   4.6398645246E+00  -2.0446676158E+00   1.1566568635E+01   1.0500000000E-01     0.000  -1.
</event>
<event>
 13   1  9.2978750E-05  1.2500000E+02  7.5467720E-03  1.2380620E-01
   21   -1    0    0  502  501   0.0000000000E+00   0.0000000000E+00   1.7494047229E+02   1.7494047229E+02   0.0000000000E+00     0.000   1.
   21   -1    0    0  501  502   0.0000000000E+00   0.0000000000E+00  -2.2329023975E+01   2.2329023975E+01   0.0000000000E+00     0.000   1.
   25    2    1    2    0    0   0.0000000000E+00   0.0000000000E+00   1.5261144831E+02   1.9726949626E+02   1.2500000000E+02  5.458E-08  -1.
3000002    2    3    0    0    0   4.3130794792E+00   5.6547931465E+01   3.7973137788E+01   6.8979927522E+01   1.0000000000E+01  9.558E-10  -1.
3000002    2    3    0    0    0  -4.3130794792E+00  -5.6547931465E+01   1.1463831052E+02   1.2828956874E+02   1.0000000000E+01  3.100E-10  -1.
3000001    1    4    0    0    0   5.1360645054E+00   4.2478174425E+01   3.2957174485E+01   5.4018050789E+01   1.0000000000E+00     0.000   1.
3000022   2   4   0   0   0   -8.2298502617E-01   1.4069757040E+01   5.0159633032E+00   1.4961876733E+01   2.5000000000E-01   1.212057E+00   0.
3000001    1    5    0    0    0   2.0528898263E+00  -3.6402101601E+00   8.5331621240E+00   9.5540746534E+00   1.0000000000E+00     0.000   1.
3000022   2   5   0   0   0   -6.3659693055E+00   -5.2907721305E+01   1.0610514840E+02   1.1873549408E+02   2.5000000000E-01   4.414082E+00   0.
13    1    7    0    0    0  -2.6220649822E-01   3.9973988993E+00   1.3943980461E+00   4.2430320667E+00   1.0500000000E-01     0.000   1.
-13    1    7    0    0    0  -5.6077852795E-01   1.0072358140E+01   3.6215652572E+00   1.0718844666E+01   1.0500000000E-01     0.000  -1.
13    1    9    0    0    0  -2.5877722176E+00  -2.1654220416E+01   4.3286095768E+01   4.8469567140E+01   1.0500000000E-01     0.000   1.
-13    1    9    0    0    0  -3.7781970880E+00  -3.1253500888E+01   6.2819052630E+01   7.0265926945E+01   1.0500000000E-01     0.000  -1.
</event>
<event>
 13   1  9.2978750E-05  1.2500000E+02  7.5467720E-03  1.2380620E-01
   21   -1    0    0  502  501   0.0000000000E+00   0.0000000000E+00   9.8815169634E+00   9.8815169634E+00   0.0000000000E+00     0.000  -1.
   21   -1    0    0  501  502   0.0000000000E+00   0.0000000000E+00  -3.9530873797E+02   3.9530873797E+02   0.0000000000E+00     0.000  -1.
   25    2    1    2    0    0   0.0000000000E+00   0.0000000000E+00  -3.8542722100E+02   4.0519025493E+02   1.2500000000E+02  7.817E-09  -1.
3000002    2    3    0    0    0  -4.4868075347E+01  -4.0447724550E+01  -1.5208615286E+02   1.6394926196E+02   1.0000000000E+01  7.029E-10   1.
3000002    2    3    0    0    0   4.4868075347E+01   4.0447724550E+01  -2.3334106814E+02   2.4124099297E+02   1.0000000000E+01  9.711E-10   1.
3000001    1    4    0    0    0  -2.8115808302E+01  -2.3190288052E+01  -7.9008702008E+01   8.7015303996E+01   1.0000000000E+00     0.000  -1.
3000022   2   4   0   0   0   -1.6752267044E+01   -1.7257436498E+01   -7.3077450847E+01   7.6933957963E+01   2.5000000000E-01   1.379441E+01   0.
3000001    1    5    0    0    0   2.4607401402E+01   1.5713539630E+01  -1.1591438068E+02   1.1953904459E+02   1.0000000000E+00     0.000   1.
3000022   2   5   0   0   0   2.0260673945E+01   2.4734184920E+01   -1.1742668746E+02   1.2170194838E+02   2.5000000000E-01   3.353259E+00   0.
13    1    7    0    0    0  -8.9703855456E+00  -9.1443497199E+00  -3.8931344856E+01   4.0984723812E+01   1.0500000000E-01     0.000   1.
-13    1    7    0    0    0  -7.7818814988E+00  -8.1130867782E+00  -3.4146105991E+01   3.5949234151E+01   1.0500000000E-01     0.000  -1.
13    1    9    0    0    0   1.2422435229E+01   1.5078219007E+01  -7.1856429670E+01   7.4464938698E+01   1.0500000000E-01     0.000   1.
-13    1    9    0    0    0   7.8382387155E+00   9.6559659136E+00  -4.5570257790E+01   4.7237009685E+01   1.0500000000E-01     0.000  -1.
</event>
<event>
 13   1  9.2978750E-05  1.2500000E+02  7.5467720E-03  1.2380620E-01
   21   -1    0    0  502  501   0.0000000000E+00   0.0000000000E+00   1.2066345300E+02   1.2066345300E+02   0.0000000000E+00     0.000   1.
   21   -1    0    0  501  502   0.0000000000E+00   0.0000000000E+00  -3.2373099749E+01   3.2373099749E+01   0.0000000000E+00     0.000   1.
   25    2    1    2    0    0   0.0000000000E+00   0.0000000000E+00   8.8290353252E+01   1.5303655275E+02   1.2500000000E+02  2.121E-08  -1.
3000002    2    3    0    0    0  -5.8404033822E+01  -1.6299746764E+01   3.0210970600E+01   6.8479308232E+01   1.0000000000E+01  4.013E-10   1.
3000002    2    3    0    0    0   5.8404033822E+01   1.6299746764E+01   5.8079382652E+01   8.4557244518E+01   1.0000000000E+01  1.960E-11   1.
3000001    1    4    0    0    0  -6.2233790374E-01  -2.5141043705E-01   1.6844924026E+00   2.0707550142E+00   1.0000000000E+00     0.000   1.
3000022   2   4   0   0   0   -5.7781695919E+01   -1.6048336327E+01   2.8526478198E+01   6.6408553218E+01   2.5000000000E-01   8.337899E+00   0.
3000001    1    5    0    0    0   5.8400306392E+00   2.6431022104E+00   1.0557650638E+01   1.2391768806E+01   1.0000000000E+00     0.000   1.
3000022   2   5   0   0   0   5.2564003183E+01   1.3656644554E+01   4.7521732014E+01   7.2165475712E+01   2.5000000000E-01   2.582527E+00   0.
13    1    7    0    0    0  -3.3214457203E+01  -9.2767405480E+00   1.6357822726E+01   3.8168671339E+01   1.0500000000E-01     0.000  -1.
-13    1    7    0    0    0  -2.4567238716E+01  -6.7715957791E+00   1.2168655472E+01   2.8239881878E+01   1.0500000000E-01     0.000   1.
13    1    9    0    0    0   3.4256403267E+01   8.9555455167E+00   3.0960030869E+01   4.7034428844E+01   1.0500000000E-01     0.000  -1.
-13    1    9    0    0    0   1.8307599916E+01   4.7010990371E+00   1.6561701145E+01   2.5131046868E+01   1.0500000000E-01     0.000   1.
</event>
<event>
 13   1  9.2978750E-05  1.2500000E+02  7.5467720E-03  1.2380620E-01
   21   -1    0    0  502  501   0.0000000000E+00   0.0000000000E+00   1.7118275762E+01   1.7118275762E+01   0.0000000000E+00     0.000   1.
   21   -1    0    0  501  502   0.0000000000E+00   0.0000000000E+00  -2.2819179071E+02   2.2819179071E+02   0.0000000000E+00     0.000   1.
   25    2    1    2    0    0   0.0000000000E+00   0.0000000000E+00  -2.1107351495E+02   2.4531006647E+02   1.2500000000E+02  4.431E-08  -1.
3000002    2    3    0    0    0   2.1349479821E+01  -2.7421486193E+01  -2.0557538028E+02   2.0873182596E+02   1.0000000000E+01  5.169E-10  -1.
3000002    2    3    0    0    0  -2.1349479821E+01   2.7421486193E+01  -5.4981346717E+00   3.6578240506E+01   1.0000000000E+01  3.001E-11  -1.
3000001    1    4    0    0    0   2.1049796302E+01  -2.7719070596E+01  -1.9098732349E+02   1.9413551590E+02   1.0000000000E+00     0.000  -1.
3000022   2   4   0   0   0   2.9968351980E-01   2.9758440310E-01   -1.4588056784E+01   1.4596310062E+01   2.5000000000E-01   1.140417E+00   0.
3000001    1    5    0    0    0  -1.9568755411E+01   2.8059730357E+01  -5.5408509029E+00   3.4669665196E+01   1.0000000000E+00     0.000  -1.
3000022   2   5   0   0   0   -1.7807244104E+00   -6.3824416452E-01   4.2716231283E-02   1.9085753105E+00   2.5000000000E-01   5.846430E+00   0.
13    1    7    0    0    0   8.6525708070E-02   1.7974117415E-01  -6.8630851984E+00   6.8667865140E+00   1.0500000000E-01     0.000   1.
-13    1    7    0    0    0   2.1315781173E-01   1.1784322895E-01  -7.7249715860E+00   7.7295235483E+00   1.0500000000E-01     0.000  -1.
13    1    9    0    0    0  -5.6612897701E-01  -2.1022896085E-01   6.4230799844E-02   6.1631877324E-01   1.0500000000E-01     0.000  -1.
-13    1    9    0    0    0  -1.2145954334E+00  -4.2801520366E-01  -2.1514568561E-02   1.2922565372E+00   1.0500000000E-01     0.000   1.
</event>
<event>
 13   1  9.2978750E-05  1.2500000E+02  7.5467720E-03  1.2380620E-01
   21   -1    0    0  502  501   0.0000000000E+00   0.0000000000E+00   1.6257389880E+02   1.6257389880E+02   0.0000000000E+00     0.000   1.
   21   -1    0    0  501  502   0.0000000000E+00   0.0000000000E+00  -2.4027534733E+01   2.4027534733E+01   0.0000000000E+00     0.000   1.
   25    2    1    2    0    0   0.0000000000E+00   0.0000000000E+00   1.3854636407E+02   1.8660143353E+02   1.2500000000E+02  1.535E-08  -1.
3000002    2    3    0    0    0  -5.5813379749E+01  -4.3264281870E+00   3.0563608887E+01   6.4559937485E+01   1.0000000000E+01  4.333E-11   1.
3000002    2    3    0    0    0   5.5813379749E+01   4.3264281870E+00   1.0798275518E+02   1.2204149605E+02   1.0000000000E+01  7.772E-11   1.
3000001    1    4    0    0    0  -2.9095801445E+00   1.3862369434E+00   4.1282735905E-01   3.3996670291E+00   1.0000000000E+00     0.000   1.
3000022   2   4   0   0   0   -5.2903799605E+01   -5.7126651304E+00   3.0150781527E+01   6.1160270456E+01   2.5000000000E-01   1.613069E+00   0.
3000001    1    5    0    0    0   5.3216502223E+01   3.8275937224E+00   1.0616792127E+02   1.1882455171E+02   1.0000000000E+00     0.000   1.
3000022   2   5   0   0   0   2.5968775265E+00   4.9883446461E-01   1.8148339116E+00   3.2169443324E+00   2.5000000000E-01   2.420564E+00   0.
13    1    7    0    0    0  -2.7656574704E+01  -2.9756291599E+00   1.5837979704E+01   3.2009266148E+01   1.0500000000E-01     0.000   1.
-13    1    7    0    0    0  -2.5247224901E+01  -2.7370359705E+00   1.4312801824E+01   2.9151004308E+01   1.0500000000E-01     0.000  -1.
13    1    9    0    0    0   5.9151272334E-01   1.1284181323E-01   4.2086589474E-01   7.4214127903E-01   1.0500000000E-01     0.000  -1.
-13    1    9    0    0    0   2.0053648032E+00   3.8599265139E-01   1.3939680169E+00   2.4748030533E+00   1.0500000000E-01     0.000   1.
</event>
<event>
 13   1  9.2978750E-05  1.2500000E+02  7.5467720E-03  1.2380620E-01
   21   -1    0    0  502  501   0.0000000000E+00   0.0000000000E+00   3.1672682764E+02   3.1672682764E+02   0.0000000000E+00     0.000  -1.
   21   -1    0    0  501  502   0.0000000000E+00   0.0000000000E+00  -1.2333183233E+01   1.2333183233E+01   0.0000000000E+00     0.000  -1.
   25    2    1    2    0    0   0.0000000000E+00   0.0000000000E+00   3.0439364441E+02   3.2906001088E+02   1.2500000000E+02  1.790E-08  -1.
3000002    2    3    0    0    0  -1.8093822412E+01  -5.7759555514E+01   1.2075027042E+02   1.3544068986E+02   1.0000000000E+01  1.283E-10  -1.
3000002    2    3    0    0    0   1.8093822412E+01   5.7759555514E+01   1.8364337399E+02   1.9361932102E+02   1.0000000000E+01  1.284E-10  -1.
3000001    1    4    0    0    0  -4.6513385943E+00  -2.3118847496E+01   3.8054221725E+01   4.4779904548E+01   1.0000000000E+00     0.000   1.
3000022   2   4   0   0   0   -1.3442483817E+01   -3.4640708018E+01   8.2696048692E+01   9.0660785307E+01   2.5000000000E-01   1.290098E+01   0.
3000001    1    5    0    0    0  -8.7978904985E-01   2.8468287133E+00   7.1808740775E+00   7.8385850134E+00   1.0000000000E+00     0.000   1.
3000022   2   5   0   0   0   1.8973611461E+01   5.4912726801E+01   1.7646249992E+02   1.8578073601E+02   2.5000000000E-01   1.166418E+01   0.
13    1    7    0    0    0  -3.7263642906E+00  -9.6142512143E+00   2.2854714551E+01   2.5073265033E+01   1.0500000000E-01     0.000   1.
-13    1    7    0    0    0  -9.7161195266E+00  -2.5026456804E+01   5.9841334142E+01   6.5587520274E+01   1.0500000000E-01     0.000  -1.
13    1    9    0    0    0   6.8917299131E+00   2.0123485514E+01   6.4572663390E+01   6.7985958055E+01   1.0500000000E-01     0.000   1.
-13    1    9    0    0    0   1.2081881548E+01   3.4789241287E+01   1.1188983653E+02   1.1779477796E+02   1.0500000000E-01     0.000  -1.
</event>
<event>
 13   1  9.2978750E-05  1.2500000E+02  7.5467720E-03  1.2380620E-01
   21   -1    0    0  502  501   0.0000000000E+00   0.0000000000E+00   1.9938137883E+02   1.9938137883E+02   0.0000000000E+00     0.000   1.
   21   -1    0    0  501  502   0.0000000000E+00   0.0000000000E+00  -1.9591849665E+01   1.9591849665E+01   0.0000000000E+00     0.000   1.
   25    2    1    2    0    0   0.0000000000E+00   0.0000000000E+00   1.7978952916E+02   2.1897322849E+02   1.2500000000E+02  9.781E-09  -1.
3000002    2    3    0    0    0   3.8901519041E+01   1.9089408987E+01   1.6682422093E+02   1.7265009241E+02   1.0000000000E+01  1.231E-09  -1.
3000002    2    3    0    0    0  -3.8901519041E+01  -1.9089408987E+01   1.2965308231E+01   4.6323136084E+01   1.0000000000E+01  1.974E-09  -1.
3000001    1    4    0    0    0   3.0507723484E+00   1.4088224367E+00   6.1622921256E+00   7.0898403946E+00   1.0000000000E+00     0.000  -1.
3000022   2   4   0   0   0   3.5850746692E+01   1.7680586550E+01   1.6066192880E+02   1.6556025201E+02   2.5000000000E-01   1.570563E+00   0.
3000001    1    5    0    0    0  -1.5413457549E+01  -8.9079906286E+00   1.0279955512E+01   2.0581653383E+01   1.0000000000E+00     0.000  -1.
3000022   2   5   0   0   0   -2.3488061492E+01   -1.0181418358E+01   2.6853527194E+00   2.5741482702E+01   2.5000000000E-01   5.402738E+00   0.
13    1    7    0    0    0   1.1240156491E+01   5.5542358287E+00   5.0192227904E+01   5.1734528321E+01   1.0500000000E-01     0.000  -1.
-13    1    7    0    0    0   2.4610590202E+01   1.2126350722E+01   1.1046970090E+02   1.1382572369E+02   1.0500000000E-01     0.000   1.
13    1    9    0    0    0  -1.6617100689E+01  -7.2430549069E+00   1.8779157642E+00   1.8224364799E+01   1.0500000000E-01     0.000   1.
-13    1    9    0    0    0  -6.8709608028E+00  -2.9383634516E+00   8.0743695523E-01   7.5171179027E+00   1.0500000000E-01     0.000  -1.
</event>
<event>
 13   1  9.2978750E-05  1.2500000E+02  7.5467720E-03  1.2380620E-01
   21   -1    0    0  502  501   0.0000000000E+00   0.0000000000E+00   5.9152824892E+01   5.9152824892E+01   0.0000000000E+00     0.000  -1.
   21   -1    0    0  501  502   0.0000000000E+00   0.0000000000E+00  -6.6036575719E+01   6.6036575719E+01   0.0000000000E+00     0.000  -1.
   25    2    1    2    0    0   0.0000000000E+00   0.0000000000E+00  -6.8837508271E+00   1.2518940061E+02   1.2500000000E+02  7.836E-09  -1.
3000002    2    3    0    0    0   9.4106999037E+00  -5.7168956127E+01   1.7789282774E+01   6.1427269180E+01   1.0000000000E+01  2.653E-09   1.
3000002    2    3    0    0    0  -9.4106999037E+00   5.7168956127E+01  -2.4673033601E+01   6.3762131430E+01   1.0000000000E+01  2.902E-09   1.
3000001    1    4    0    0    0   7.1441459591E+00  -3.9969269512E+01   7.6423862730E+00   4.1327804137E+01   1.0000000000E+00     0.000   1.
3000022   2   4   0   0   0   2.2665539446E+00   -1.7199686615E+01   1.0146896501E+01   2.0099465043E+01   2.5000000000E-01   4.981791E+00   0.
3000001    1    5    0    0    0  -3.5809362137E+00   4.6827143108E+00  -2.7909360706E+00   6.5985029843E+00   1.0000000000E+00     0.000  -1.
3000022   2   5   0   0   0   -5.8297636901E+00   5.2486241816E+01   -2.1882097530E+01   5.7163628445E+01   2.5000000000E-01   1.699891E+01   0.
13    1    7    0    0    0   1.2780119309E+00  -1.0178530392E+01   5.9860420878E+00   1.1877690024E+01   1.0500000000E-01     0.000  -1.
-13    1    7    0    0    0   9.8854201368E-01  -7.0211562228E+00   4.1608544132E+00   8.2217750191E+00   1.0500000000E-01     0.000   1.
13    1    9    0    0    0  -4.1595799336E+00   3.7239482550E+01  -1.5565826467E+01   4.0575696475E+01   1.0500000000E-01     0.000   1.
-13    1    9    0    0    0  -1.6701837565E+00   1.5246759266E+01  -6.3162710636E+00   1.6587931970E+01   1.0500000000E-01     0.000  -1.
</event>
<event>
 13   1  9.2978750E-05  1.2500000E+02  7.5467720E-03  1.2380620E-01
   21   -1    0    0  502  501   0.0000000000E+00   0.0000000000E+00   3.4442802836E+00   3.4442802836E+00   0.0000000000E+00     0.000   1.
   21   -1    0    0  501  502   0.0000000000E+00   0.0000000000E+00  -1.1341266327E+03   1.1341266327E+03   0.0000000000E+00     0.000   1.
   25    2    1    2    0    0   0.0000000000E+00   0.0000000000E+00  -1.1306823524E+03   1.1375709129E+03   1.2500000000E+02  6.408E-08  -1.
3000002    2    3    0    0    0   1.9610034148E+01  -5.2223370985E+01  -3.2552507311E+02   3.3042155973E+02   1.0000000000E+01  3.616E-10   1.
3000002    2    3    0    0    0  -1.9610034148E+01   5.2223370985E+01  -8.0515727929E+02   8.0714935317E+02   1.0000000000E+01  1.252E-09   1.
3000001    1    4    0    0    0   3.7813695855E+00  -2.2726131422E+01  -1.4416129210E+02   1.4599402024E+02   1.0000000000E+00     0.000  -1.
3000022   2   4   0   0   0   1.5828664563E+01   -2.9497239562E+01   -1.8136378101E+02   1.8442753950E+02   2.5000000000E-01   3.519450E+00   0.
3000001    1    5    0    0    0  -8.1410169388E+00   3.2095149963E+01  -5.1869615179E+02   5.1975289579E+02   1.0000000000E+00     0.000   1.
3000022   2   5   0   0   0   -1.1469017209E+01   2.0128221022E+01   -2.8646112751E+02   2.8739645737E+02   2.5000000000E-01   4.189565E-01   0.
13    1    7    0    0    0   1.0764377008E+01  -2.0132149907E+01  -1.2388432366E+02   1.2597028199E+02   1.0500000000E-01     0.000   1.
-13    1    7    0    0    0   5.0642875545E+00  -9.3650896556E+00  -5.7479457349E+01   5.8457257503E+01   1.0500000000E-01     0.000  -1.
13    1    9    0    0    0  -4.2302941000E+00   7.3061970460E+00  -1.0447335819E+02   1.0481397569E+02   1.0500000000E-01     0.000   1.
-13    1    9    0    0    0  -7.2387231094E+00   1.2822023976E+01  -1.8198776931E+02   1.8258248168E+02   1.0500000000E-01     0.000  -1.
</event>
<event>
 13   1  9.2978750E-05  1.2500000E+02  7.5467720E-03  1.2380620E-01
   21   -1    0    0  502  501   0.0000000000E+00   0.0000000000E+00   3.6139498649E+02   3.6139498649E+02   0.0000000000E+00     0.000  -1.
   21   -1    0    0  501  502   0.0000000000E+00   0.0000000000E+00  -1.0808810709E+01   1.0808810709E+01   0.0000000000E+00     0.000  -1.
   25    2    1    2    0    0   0.0000000000E+00   0.0000000000E+00   3.5058617578E+02   3.7220379720E+02   1.2500000000E+02  3.817E-08  -1.
3000002    2    3    0    0    0   3.4568860657E+00  -5.8545932106E+01   1.1827525456E+02   1.3239566484E+02   1.0000000000E+01  1.798E-09   1.
3000002    2    3    0    0    0  -3.4568860657E+00   5.8545932106E+01   2.3231092122E+02   2.3980813236E+02   1.0000000000E+01  1.162E-09   1.
3000001    1    4    0    0    0  -3.3829729685E+00  -2.1780601581E+01   4.6032440994E+01   5.1047279411E+01   1.0000000000E+00     0.000  -1.
3000022   2   4   0   0   0   6.8398590342E+00   -3.6765330525E+01   7.2242813565E+01   8.1348385430E+01   2.5000000000E-01   1.560921E+00   0.
3000001    1    5    0    0    0   7.5991967470E-01   2.0018892826E+01   6.2925234099E+01   6.6044822919E+01   1.0000000000E+00     0.000   1.
3000022   2   5   0   0   0   -4.2168057404E+00   3.8527039280E+01   1.6938568712E+02   1.7376330944E+02   2.5000000000E-01   2.340491E+01   0.
13    1    7    0    0    0   3.5196224159E+00  -1.8607809343E+01   3.6503769616E+01   4.1123892468E+01   1.0500000000E-01     0.000  -1.
-13    1    7    0    0    0   3.3202366183E+00  -1.8157521182E+01   3.5739043949E+01   4.0224492962E+01   1.0500000000E-01     0.000   1.
13    1    9    0    0    0  -2.2883117766E+00   2.0424807572E+01   9.0012925005E+01   9.2329555550E+01   1.0500000000E-01     0.000   1.
-13    1    9    0    0    0  -1.9284939638E+00   1.8102231708E+01   7.9372762117E+01   8.1433753891E+01   1.0500000000E-01     0.000  -1.
</event>
<event>
 13   1  9.2978750E-05  1.2500000E+02  7.5467720E-03  1.2380620E-01
   21   -1    0    0  502  501   0.0000000000E+00   0.0000000000E+00   4.9684694776E+01   4.9684694776E+01   0.0000000000E+00     0.000   1.
   21   -1    0    0  501  502   0.0000000000E+00   0.0000000000E+00  -7.8620790921E+01   7.8620790921E+01   0.0000000000E+00     0.000   1.
   25    2    1    2    0    0   0.0000000000E+00   0.0000000000E+00  -2.8936096145E+01   1.2830548570E+02   1.2500000000E+02  1.443E-07  -1.
3000002    2    3    0    0    0  -2.4092545456E+01  -4.0995275545E+01   2.5880293040E+01   5.5053182754E+01   1.0000000000E+01  1.216E-09   1.
3000002    2    3    0    0    0   2.4092545456E+01   4.0995275545E+01  -5.4816389185E+01   7.3252302946E+01   1.0000000000E+01  6.415E-11   1.
3000001    1    4    0    0    0  -1.6395110939E+01  -2.3846715799E+01   2.0570325105E+01   3.5519062376E+01   1.0000000000E+00     0.000   1.
3000022   2   4   0   0   0   -7.6974345172E+00   -1.7148559746E+01   5.3099679341E+00   1.9534120379E+01   2.5000000000E-01   8.246743E-01   0.
3000001    1    5    0    0    0   1.7576775114E+01   2.4713794405E+01  -4.0538350201E+01   5.0636671438E+01   1.0000000000E+00     0.000   1.
3000022   2   5   0   0   0   6.5157703417E+00   1.6281481140E+01   -1.4278038984E+01   2.2615631508E+01   2.5000000000E-01   1.290153E+00   0.
13    1    7    0    0    0  -2.7604509020E+00  -6.1712083621E+00   1.8502802802E+00   7.0098833047E+00   1.0500000000E-01     0.000  -1.
-13    1    7    0    0    0  -4.9369836152E+00  -1.0977351384E+01   3.4596876540E+00   1.2524237074E+01   1.0500000000E-01     0.000   1.
13    1    9    0    0    0   4.2176567719E+00   1.0586819528E+01  -9.3471023223E+00   1.4739359660E+01   1.0500000000E-01     0.000   1.
-13    1    9    0    0    0   2.2981135699E+00   5.6946616118E+00  -4.9309366616E+00   7.8762718473E+00   1.0500000000E-01     0.000  -1.
</event>
<event>
 13   1  9.2978750E-05  1.2500000E+02  7.5467720E-03  1.2380620E-01
   21   -1    0    0  502  501   0.0000000000E+00   0.0000000000E+00   2.0102604973E+02   2.0102604973E+02   0.0000000000E+00     0.000  -1.
   21   -1    0    0  501  502   0.0000000000E+00   0.0000000000E+00  -1.9431561259E+01   1.9431561259E+01   0.0000000000E+00     0.000  -1.
   25    2    1    2    0    0   0.0000000000E+00   0.0000000000E+00   1.8159448847E+02   2.2045761099E+02   1.2500000000E+02  6.309E-09  -1.
3000002    2    3    0    0    0   1.8429209013E+01   1.2406367498E+01   1.9230655879E+02   1.9384366446E+02   1.0000000000E+01  2.492E-10  -1.
3000002    2    3    0    0    0  -1.8429209013E+01  -1.2406367498E+01  -1.0712070317E+01   2.6613946529E+01   1.0000000000E+01  3.136E-10  -1.
3000001    1    4    0    0    0   8.6877663885E+00   5.9300321029E+00   5.2771169399E+01   5.3818573795E+01   1.0000000000E+00     0.000   1.
3000022   2   4   0   0   0   9.7414426247E+00   6.4763353953E+00   1.3953538939E+02   1.4002509067E+02   2.5000000000E-01   8.709621E-01   0.
3000001    1    5    0    0    0  -1.6308452070E+01  -7.9578519546E+00  -4.5784585951E+00   1.8741806203E+01   1.0000000000E+00     0.000   1.
3000022   2   5   0   0   0   -2.1207569437E+00   -4.4485155436E+00   -6.1336117218E+00   7.8721403258E+00   2.5000000000E-01   1.877509E+00   0.
13    1    7    0    0    0   2.7536336380E+00   1.8128363994E+00   3.8890140391E+01   3.9029769646E+01   1.0500000000E-01     0.000   1.
-13    1    7    0    0    0   6.9878089867E+00   4.6634989958E+00   1.0064524900E+02   1.0099532102E+02   1.0500000000E-01     0.000  -1.
13    1    9    0    0    0  -1.0698066878E+00  -2.2743243553E+00  -3.0218378162E+00   3.9318655127E+00   1.0500000000E-01     0.000  -1.
-13    1    9    0    0    0  -1.0509502559E+00  -2.1741911883E+00  -3.1117739056E+00   3.9402748132E+00   1.0500000000E-01     0.000   1.
</event>
<event>
 13   1  9.2978750E-05  1.2500000E+02  7.5467720E-03  1.2380620E-01
   21   -1    0    0  502  501   0.0000000000E+00   0.0000000000E+00   1.6648648172E+02   1.6648648172E+02   0.0000000000E+00     0.000  -1.
   21   -1    0    0  501  502   0.0000000000E+00   0.0000000000E+00  -2.3462865932E+01   2.3462865932E+01   0.0000000000E+00     0.000  -1.
   25    2    1    2    0    0   0.0000000000E+00   0.0000000000E+00   1.4302361579E+02   1.8994934765E+02   1.2500000000E+02  4.540E-08  -1.
3000002    2    3    0    0    0   1.0036957639E+01   2.8722658267E+01   1.5306916033E+02   1.5638382097E+02   1.0000000000E+01  7.528E-10   1.
3000002    2    3    0    0    0  -1.0036957639E+01  -2.8722658267E+01  -1.0045544537E+01   3.3565526685E+01   1.0000000000E+01  2.597E-10   1.
3000001    1    4    0    0    0   1.1494055246E+01   2.2066960910E+01   1.2826134694E+02   1.3065617930E+02   1.0000000000E+00     0.000   1.
3000022   2   4   0   0   0   -1.4570976071E+00   6.6556973577E+00   2.4807813389E+01   2.5727641670E+01   2.5000000000E-01   2.445734E+00   0.
3000001    1    5    0    0    0  -9.3160648031E+00  -2.5373627223E+01  -5.0697477460E+00   2.7519308932E+01   1.0000000000E+00     0.000   1.
3000022   2   5   0   0   0   -7.2089283607E-01   -3.3490310443E+00   -4.9757967906E+00   6.0462177531E+00   2.5000000000E-01   7.829208E+00   0.
13    1    7    0    0    0  -4.9524991944E-01   2.0745387988E+00   7.8778278393E+00   8.1621186083E+00   1.0500000000E-01     0.000  -1.
-13    1    7    0    0    0  -9.6184768763E-01   4.5811585589E+00   1.6929985550E+01   1.7565523062E+01   1.0500000000E-01     0.000   1.
13    1    9    0    0    0  -5.3408746070E-01  -2.2369568719E+00  -3.3556967413E+00   4.0695148460E+00   1.0500000000E-01     0.000  -1.
-13    1    9    0    0    0  -1.8680537537E-01  -1.1120741724E+00  -1.6201000494E+00   1.9767029072E+00   1.0500000000E-01     0.000   1.
</event>
<event>
 13   1  9.2978750E-05  1.2500000E+02  7.5467720E-03  1.2380620E-01
   21   -1    0    0  502  501   0.0000000000E+00   0.0000000000E+00   5.2776016380E+01   5.2776016380E+01   0.0000000000E+00     0.000   1.
   21   -1    0    0  501  502   0.0000000000E+00   0.0000000000E+00  -7.4015628082E+01   7.4015628082E+01   0.0000000000E+00     0.000   1.
   25    2    1    2    0    0   0.0000000000E+00   0.0000000000E+00  -2.1239611703E+01   1.2679164446E+02   1.2500000000E+02  2.572E-09  -1.
3000002    2    3    0    0    0  -3.3393126035E+01   2.9190729360E+01  -5.4118622608E+01   7.0682564045E+01   1.0000000000E+01  4.828E-10   1.
3000002    2    3    0    0    0   3.3393126035E+01  -2.9190729360E+01   3.2879010905E+01   5.6109080415E+01   1.0000000000E+01  3.002E-10   1.
3000001    1    4    0    0    0  -1.9483800421E+00   5.6907791189E+00  -9.0712489519E+00   1.0930174258E+01   1.0000000000E+00     0.000  -1.
3000022   2   4   0   0   0   -3.1444745993E+01   2.3499950241E+01   -4.5047373657E+01   5.9752389787E+01   2.5000000000E-01   2.488192E+00   0.
3000001    1    5    0    0    0   1.5333318080E+01  -7.2669095669E+00   1.3753533429E+01   2.1865001710E+01   1.0000000000E+00     0.000  -1.
3000022   2   5   0   0   0   1.8059807955E+01   -2.1923819793E+01   1.9125477477E+01   3.4244078705E+01   2.5000000000E-01   2.323639E+00   0.
13    1    7    0    0    0  -2.1670649711E+01   1.6252756735E+01  -3.1061133767E+01   4.1213762462E+01   1.0500000000E-01     0.000   1.
-13    1    7    0    0    0  -9.7740962817E+00   7.2471935057E+00  -1.3986239889E+01   1.8538627324E+01   1.0500000000E-01     0.000  -1.
13    1    9    0    0    0   1.0322477152E+01  -1.2466438280E+01   1.0959478077E+01   1.9547040764E+01   1.0500000000E-01     0.000   1.
-13    1    9    0    0    0   7.7373308031E+00  -9.4573815132E+00   8.1659993999E+00   1.4697037941E+01   1.0500000000E-01     0.000  -1.
</event>
<event>
 13   1  9.2978750E-05  1.2500000E+02  7.5467720E-03  1.2380620E-01
   21   -1    0    0  502  501   0.0000000000E+00   0.0000000000E+00   3.4447905558E+02   3.4447905558E+02   0.0000000000E+00     0.000  -1.
   21   -1    0    0  501  502   0.0000000000E+00   0.0000000000E+00  -1.1339586360E+01   1.1339586360E+01   0.0000000000E+00     0.000  -1.
   25    2    1    2    0    0   0.0000000000E+00   0.0000000000E+00   3.3313946921E+02   3.5581864194E+02   1.2500000000E+02  3.880E-08  -1.
3000002    2    3    0    0    0  -8.7453589186E+00  -5.8447869522E+01   1.1615966824E+02   1.3071229200E+02   1.0000000000E+01  9.288E-11  -1.
3000002    2    3    0    0    0   8.7453589186E+00   5.8447869522E+01   2.1697980097E+02   2.2510634994E+02   1.0000000000E+01  6.809E-10  -1.
3000001    1    4    0    0    0   1.6182954879E-01  -6.7423260367E+00   2.0561571007E+01   2.1662487194E+01   1.0000000000E+00     0.000  -1.
3000022   2   4   0   0   0   -8.9071884674E+00   -5.1705543486E+01   9.5598097235E+01   1.0904980481E+02   2.5000000000E-01   1.434125E+00   0.
3000001    1    5    0    0    0   8.4175724325E+00   2.7427002542E+01   1.1367111626E+02   1.1724000455E+02   1.0000000000E+00     0.000   1.
3000022   2   5   0   0   0   3.2778648610E-01   3.1020866980E+01   1.0330868471E+02   1.0786634539E+02   2.5000000000E-01   1.390053E+01   0.
13    1    7    0    0    0  -4.1735570150E+00  -2.4584253778E+01   4.5496619779E+01   5.1882150575E+01   1.0500000000E-01     0.000  -1.
-13    1    7    0    0    0  -4.7336314524E+00  -2.7121289708E+01   5.0101477457E+01   5.7167654233E+01   1.0500000000E-01     0.000   1.
13    1    9    0    0    0   1.3355822877E-01   9.8455688010E+00   3.2931927075E+01   3.4372604043E+01   1.0500000000E-01     0.000  -1.
-13    1    9    0    0    0   1.9422825733E-01   2.1175298179E+01   7.0376757632E+01   7.3493741348E+01   1.0500000000E-01     0.000   1.
</event>
<event>
 13   1  9.2978750E-05  1.2500000E+02  7.5467720E-03  1.2380620E-01
   21   -1    0    0  502  501   0.0000000000E+00   0.0000000000E+00   8.4451877882E+00   8.4451877882E+00   0.0000000000E+00     0.000  -1.
   21   -1    0    0  501  502   0.0000000000E+00   0.0000000000E+00  -4.6254152045E+02   4.6254152045E+02   0.0000000000E+00     0.000  -1.
   25    2    1    2    0    0   0.0000000000E+00   0.0000000000E+00  -4.5409633266E+02   4.7098670823E+02   1.2500000000E+02  4.956E-09  -1.
3000002    2    3    0    0    0   2.6721464569E+01   8.8111149940E+00  -4.3392500485E+02   4.3495124123E+02   1.0000000000E+01  8.895E-11  -1.
3000002    2    3    0    0    0  -2.6721464569E+01  -8.8111149940E+00  -2.0171327812E+01   3.6035466999E+01   1.0000000000E+01  8.659E-10  -1.
3000001    1    4    0    0    0   7.4169175288E+00   1.7605495344E+00  -6.4807407592E+01   6.5261859298E+01   1.0000000000E+00     0.000  -1.
3000022   2   4   0   0   0   1.9304547040E+01   7.0505654596E+00   -3.6911759726E+02   3.6968938193E+02   2.5000000000E-01   8.962299E-01   0.
3000001    1    5    0    0    0  -7.1111307662E+00  -4.1543573398E-01  -1.0214013119E+01   1.2492671116E+01   1.0000000000E+00     0.000   1.
3000022   2   5   0   0   0   -1.9610333802E+01   -8.3956792600E+00   -9.9573146931E+00   2.3542795883E+01   2.5000000000E-01   6.654693E+00   0.
13    1    7    0    0    0   5.7657984534E+00   2.0585700417E+00  -1.1012352713E+02   1.1029362808E+02   1.0500000000E-01     0.000   1.
-13    1    7    0    0    0   1.3538748587E+01   4.9919954180E+00  -2.5899407012E+02   2.5939575385E+02   1.0500000000E-01     0.000  -1.
13    1    9    0    0    0  -1.3631297885E+01  -5.8853984996E+00  -6.9427416372E+00   1.6390939082E+01   1.0500000000E-01     0.000  -1.
-13    1    9    0    0    0  -5.9790359172E+00  -2.5102807604E+00  -3.0145730559E+00   7.1518568012E+00   1.0500000000E-01     0.000   1.
</event>
<event>
 13   1  9.2978750E-05  1.2500000E+02  7.5467720E-03  1.2380620E-01
   21   -1    0    0  502  501   0.0000000000E+00   0.0000000000E+00   2.0820613159E+02   2.0820613159E+02   0.0000000000E+00     0.000  -1.
   21   -1    0    0  501  502   0.0000000000E+00   0.0000000000E+00  -1.8761455151E+01   1.8761455151E+01   0.0000000000E+00     0.000  -1.
   25    2    1    2    0    0   0.0000000000E+00   0.0000000000E+00   1.8944467644E+02   2.2696758674E+02   1.2500000000E+02  4.862E-08  -1.
3000002    2    3    0    0    0   4.4497134646E+01   5.6028657677E+00   1.7796990549E+01   4.9275957313E+01   1.0000000000E+01  1.321E-09   1.
3000002    2    3    0    0    0  -4.4497134646E+01  -5.6028657677E+00   1.7164768589E+02   1.7769162943E+02   1.0000000000E+01  3.154E-10   1.
3000001    1    4    0    0    0   1.0057090333E+01   4.0277335261E-01   8.5342097545E+00   1.3234048076E+01   1.0000000000E+00     0.000  -1.
3000022   2   4   0   0   0   3.4440044314E+01   5.2000924151E+00   9.2627807941E+00   3.6041909238E+01   2.5000000000E-01   3.548407E+00   0.
3000001    1    5    0    0    0  -3.5697775417E+01  -8.3796153559E+00   1.3417146738E+02   1.3909540532E+02   1.0000000000E+00     0.000   1.
3000022   2   5   0   0   0   -8.7993592289E+00   2.7767495881E+00   3.7476218515E+01   3.8596224107E+01   2.5000000000E-01   1.144228E+00   0.
13    1    7    0    0    0   1.7044645103E+01   2.6365953406E+00   4.6143842952E+00   1.7854274813E+01   1.0500000000E-01     0.000  -1.
-13    1    7    0    0    0   1.7395399210E+01   2.5634970745E+00   4.6483964988E+00   1.8187634424E+01   1.0500000000E-01     0.000   1.
13    1    9    0    0    0  -5.7730564722E+00   1.8148104435E+00   2.4805013440E+01   2.5532752197E+01   1.0500000000E-01     0.000  -1.
-13    1    9    0    0    0  -3.0263027567E+00   9.6193914464E-01   1.2671205074E+01   1.3063471909E+01   1.0500000000E-01     0.000   1.
</event>
<event>
 13   1  9.2978750E-05  1.2500000E+02  7.5467720E-03  1.2380620E-01
   21   -1    0    0  502  501   0.0000000000E+00   0.0000000000E+00   6.7234476151E+01   6.7234476151E+01   0.0000000000E+00     0.000  -1.
   21   -1    0    0  501  502   0.0000000000E+00   0.0000000000E+00  -5.8098913290E+01   5.8098913290E+01   0.0000000000E+00     0.000  -1.
   25    2    1    2    0    0   0.0000000000E+00   0.0000000000E+00   9.1355628614E+00   1.2533338944E+02   1.2500000000E+02  4.238E-08  -1.
3000002    2    3    0    0    0   8.3880664102E-01  -6.0673167458E+01   1.5747099536E+01   6.3481556296E+01   1.0000000000E+01  6.142E-10  -1.
3000002    2    3    0    0    0  -8.3880664102E-01   6.0673167458E+01  -6.6115366745E+00   6.1851833144E+01   1.0000000000E+01  1.690E-09  -1.
3000001    1    4    0    0    0  -4.3594798275E+00  -2.2979452682E+01   4.9532333169E+00   2.3928953805E+01   1.0000000000E+00     0.000   1.
3000022   2   4   0   0   0   5.1982864685E+00   -3.7693714777E+01   1.0793866219E+01   3.9552602491E+01   2.5000000000E-01   1.801668E+01   0.
3000001    1    5    0    0    0  -1.5071087475E+00   2.8119305156E+01   1.7564388047E+00   2.8232105422E+01   1.0000000000E+00     0.000   1.
3000022   2   5   0   0   0   6.6830210652E-01   3.2553862302E+01   -8.3679754792E+00   3.3619727722E+01   2.5000000000E-01   1.291781E-01   0.
13    1    7    0    0    0   3.8134196257E+00  -2.7620957477E+01   7.8735761585E+00   2.8973499749E+01   1.0500000000E-01     0.000   1.
-13    1    7    0    0    0   1.3848668428E+00  -1.0072757299E+01   2.9202900605E+00   1.0579102742E+01   1.0500000000E-01     0.000  -1.
13    1    9    0    0    0   5.1219251872E-01   2.4746575498E+01  -6.3416287347E+00   2.5551567859E+01   1.0500000000E-01     0.000  -1.
-13    1    9    0    0    0   1.5610958780E-01   7.8072868042E+00  -2.0263467445E+00   8.0681598630E+00   1.0500000000E-01     0.000   1.
</event>
<event>
 13   1  9.2978750E-05  1.2500000E+02  7.5467720E-03  1.2380620E-01
   21   -1    0    0  502  501   0.0000000000E+00   0.0000000000E+00   5.5543527984E+02   5.5543527984E+02   0.0000000000E+00     0.000  -1.
   21   -1    0    0  501  502   0.0000000000E+00   0.0000000000E+00  -7.0327725691E+00   7.0327725691E+00   0.0000000000E+00     0.000  -1.
   25    2    1    2    0    0   0.0000000000E+00   0.0000000000E+00   5.4840250727E+02   5.6246805241E+02   1.2500000000E+02  3.592E-09  -1.
3000002    2    3    0    0    0   2.2572966540E+01  -4.0780320998E+01   4.5607536794E+02   4.5856004475E+02   1.0000000000E+01  3.458E-09  -1.
3000002    2    3    0    0    0  -2.2572966540E+01   4.0780320998E+01   9.2327139334E+01   1.0390800766E+02   1.0000000000E+01  1.913E-10  -1.
3000001    1    4    0    0    0   3.3999675174E+00  -9.4942644954E+00   6.7586680386E+01   6.8342228548E+01   1.0000000000E+00     0.000   1.
3000022   2   4   0   0   0   1.9172999023E+01   -3.1286056503E+01   3.8848868755E+02   3.9021781620E+02   2.5000000000E-01   9.287898E+00   0.
3000001    1    5    0    0    0  -1.7872460094E+01   3.6999898157E+01   7.4498741095E+01   8.5085132180E+01   1.0000000000E+00     0.000  -1.
3000022   2   5   0   0   0   -4.7005064469E+00   3.7804228418E+00   1.7828398239E+01   1.8822875484E+01   2.5000000000E-01   1.957008E+00   0.
13    1    7    0    0    0   6.6525010977E+00  -1.0894134911E+01   1.3459022393E+02   1.3519422084E+02   1.0500000000E-01     0.000   1.
-13    1    7    0    0    0   1.2520497925E+01  -2.0391921592E+01   2.5389846362E+02   2.5502359536E+02   1.0500000000E-01     0.000  -1.
13    1    9    0    0    0  -1.5935976995E+00   1.3531477951E+00   6.1973575365E+00   6.5413169942E+00   1.0500000000E-01     0.000  -1.
-13    1    9    0    0    0  -3.1069087474E+00   2.4272750467E+00   1.1631040702E+01   1.2281558490E+01   1.0500000000E-01     0.000   1.
</event>
<event>
 13   1  9.2978750E-05  1.2500000E+02  7.5467720E-03  1.2380620E-01
   21   -1    0    0  502  501   0.0000000000E+00   0.0000000000E+00   3.8700069132E+02   3.8700069132E+02   0.0000000000E+00     0.000   1.
   21   -1    0    0  501  502   0.0000000000E+00   0.0000000000E+00  -1.0093651220E+01   1.0093651220E+01   0.0000000000E+00     0.000   1.
   25    2    1    2    0    0   0.0000000000E+00   0.0000000000E+00   3.7690704010E+02   3.9709434254E+02   1.2500000000E+02  6.073E-08  -1.
3000002    2    3    0    0    0   2.1792563188E+01  -5.2526760686E+01   1.1245842841E+02   1.2641548370E+02   1.0000000000E+01  4.220E-10  -1.
3000002    2    3    0    0    0  -2.1792563188E+01   5.2526760686E+01   2.6444861169E+02   2.7067885884E+02   1.0000000000E+01  1.582E-10  -1.
3000001    1    4    0    0    0   1.1958966981E+01  -1.7171095313E+01   4.4365879367E+01   4.9063170072E+01   1.0000000000E+00     0.000  -1.
3000022   2   4   0   0   0   9.8335962079E+00   -3.5355665373E+01   6.8092549040E+01   7.7352313625E+01   2.5000000000E-01   1.778696E+00   0.
3000001    1    5    0    0    0  -4.8245364496E-01   9.9307341275E+00   3.9650852485E+01   4.0890614383E+01   1.0000000000E+00     0.000  -1.
3000022   2   5   0   0   0   -2.1310109543E+01   4.2596026558E+01   2.2479775921E+02   2.2978824446E+02   2.5000000000E-01   4.948067E-01   0.
13    1    7    0    0    0   7.2744338355E+00  -2.6065756838E+01   5.0164656475E+01   5.6998639031E+01   1.0500000000E-01     0.000   1.
-13    1    7    0    0    0   2.5591623724E+00  -9.2899085349E+00   1.7927892566E+01   2.0353674594E+01   1.0500000000E-01     0.000  -1.
13    1    9    0    0    0  -1.4197532405E+01   2.8413868911E+01   1.5016113333E+02   1.5348385863E+02   1.0500000000E-01     0.000  -1.
-13    1    9    0    0    0  -7.1125771387E+00   1.4182157647E+01   7.4636625877E+01   7.6304385826E+01   1.0500000000E-01     0.000   1.
</event>
<event>
 13   1  9.2978750E-05  1.2500000E+02  7.5467720E-03  1.2380620E-01
   21   -1    0    0  502  501   0.0000000000E+00   0.0000000000E+00   8.1421677163E+01   8.1421677163E+01   0.0000000000E+00     0.000   1.
   21   -1    0    0  501  502   0.0000000000E+00   0.0000000000E+00  -4.7975553146E+01   4.7975553146E+01   0.0000000000E+00     0.000   1.
   25    2    1    2    0    0   0.0000000000E+00   0.0000000000E+00   3.3446124017E+01   1.2939723031E+02   1.2500000000E+02  3.483E-08  -1.
3000002    2    3    0    0    0   2.7006183213E+01   5.0159756663E+01  -7.7937190137E+00   5.8361607040E+01   1.0000000000E+01  3.851E-10  -1.
3000002    2    3    0    0    0  -2.7006183213E+01  -5.0159756663E+01   4.1239843031E+01   7.1035623270E+01   1.0000000000E+01  9.299E-10  -1.
3000001    1    4    0    0    0   1.5704507485E+01   3.6458612059E+01  -2.3316282063E+00   3.9778115073E+01   1.0000000000E+00     0.000   1.
3000022   2   4   0   0   0   1.1301675728E+01   1.3701144603E+01   -5.4620908074E+00   1.8583491967E+01   2.5000000000E-01   3.259161E+00   0.
3000001    1    5    0    0    0  -1.3819882036E+01  -3.5535441179E+01   2.7623876765E+01   4.7093898616E+01   1.0000000000E+00     0.000   1.
3000022   2   5   0   0   0   -1.3186301177E+01   -1.4624315483E+01   1.3615966265E+01   2.3941724654E+01   2.5000000000E-01   1.354866E+00   0.
13    1    7    0    0    0   7.2706532182E+00   8.8457813940E+00  -3.5774603268E+00   1.1996645118E+01   1.0500000000E-01     0.000  -1.
-13    1    7    0    0    0   4.0310225096E+00   4.8553632095E+00  -1.8846304806E+00   6.5868468494E+00   1.0500000000E-01     0.000   1.
13    1    9    0    0    0  -7.3752886322E+00  -8.2664740813E+00   7.6222204688E+00   1.3447629755E+01   1.0500000000E-01     0.000   1.
-13    1    9    0    0    0  -5.8110125445E+00  -6.3578414021E+00   5.9937457967E+00   1.0494094900E+01   1.0500000000E-01     0.000  -1.
</event>
<event>
 13   1  9.2978750E-05  1.2500000E+02  7.5467720E-03  1.2380620E-01
   21   -1    0    0  502  501   0.0000000000E+00   0.0000000000E+00   5.8366513195E+01   5.8366513195E+01   0.0000000000E+00     0.000  -1.
   21   -1    0    0  501  502   0.0000000000E+00   0.0000000000E+00  -6.6926218240E+01   6.6926218240E+01   0.0000000000E+00     0.000  -1.
   25    2    1    2    0    0   0.0000000000E+00   0.0000000000E+00  -8.5597050456E+00   1.2529273144E+02   1.2500000000E+02  2.161E-08  -1.
3000002    2    3    0    0    0   2.5749497111E+01  -2.5601092476E+01  -5.4274484345E+01   6.6061881507E+01   1.0000000000E+01  4.894E-10  -1.
3000002    2    3    0    0    0  -2.5749497111E+01   2.5601092476E+01   4.5714779299E+01   5.9230849933E+01   1.0000000000E+01  1.049E-10  -1.
3000001    1    4    0    0    0   1.7615974864E+01  -1.3315538269E+01  -3.9059231628E+01   4.4880393327E+01   1.0000000000E+00     0.000   1.
3000022   2   4   0   0   0   8.1335222468E+00   -1.2285554207E+01   -1.5215252716E+01   2.1181488180E+01   2.5000000000E-01   2.461365E+00   0.
3000001    1    5    0    0    0  -1.6856877803E+01   1.4555407985E+01   2.0424995922E+01   3.0235652619E+01   1.0000000000E+00     0.000   1.
3000022   2   5   0   0   0   -8.8926193081E+00   1.1045684491E+01   2.5289783377E+01   2.8995197314E+01   2.5000000000E-01   5.733319E+00   0.
13    1    7    0    0    0   5.1946584497E+00  -7.9090653403E+00  -9.8373772781E+00   1.3650011270E+01   1.0500000000E-01     0.000   1.
-13    1    7    0    0    0   2.9388637970E+00  -4.3764888664E+00  -5.3778754383E+00   7.5314769100E+00   1.0500000000E-01     0.000  -1.
13    1    9    0    0    0  -5.0733907289E+00   6.3600412387E+00   1.4619202206E+01   1.6730855214E+01   1.0500000000E-01     0.000   1.
-13    1    9    0    0    0  -3.8192285792E+00   4.6856432518E+00   1.0670581171E+01   1.2264342100E+01   1.0500000000E-01     0.000  -1.
</event>
<event>
 13   1  9.2978750E-05  1.2500000E+02  7.5467720E-03  1.2380620E-01
   21   -1    0    0  502  501   0.0000000000E+00   0.0000000000E+00   2.1176900791E+02   2.1176900791E+02   0.0000000000E+00     0.000  -1.
   21   -1    0    0  501  502   0.0000000000E+00   0.0000000000E+00  -1.8445805826E+01   1.8445805826E+01   0.0000000000E+00     0.000  -1.
   25    2    1    2    0    0   0.0000000000E+00   0.0000000000E+00   1.9332320209E+02   2.3021481374E+02   1.2500000000E+02  1.491E-07  -1.
3000002    2    3    0    0    0   4.2342862238E+01  -4.2716843599E+01   1.2195445785E+02   1.3634711768E+02   1.0000000000E+01  2.551E-10  -1.
3000002    2    3    0    0    0  -4.2342862238E+01   4.2716843599E+01   7.1368744242E+01   9.3867696064E+01   1.0000000000E+01  4.621E-10  -1.
3000001    1    4    0    0    0   1.5864308391E+01  -1.2203112136E+01   3.2325745754E+01   3.8033486102E+01   1.0000000000E+00     0.000   1.
3000022   2   4   0   0   0   2.6478553847E+01   -3.0513731463E+01   8.9628712095E+01   9.8313631575E+01   2.5000000000E-01   5.059909E+00   0.
3000001    1    5    0    0    0  -6.3900916591E+00   2.4480052233E+00   6.7097673083E+00   9.6357136900E+00   1.0000000000E+00     0.000  -1.
3000022   2   5   0   0   0   -3.5952770579E+01   4.0268838376E+01   6.4658976934E+01   8.4231982374E+01   2.5000000000E-01   8.340070E-01   0.
13    1    7    0    0    0   1.8040121962E+01  -2.0714254043E+01   6.0968970987E+01   6.6871165454E+01   1.0500000000E-01     0.000   1.
-13    1    7    0    0    0   8.4384318855E+00  -9.7994774200E+00   2.8659741108E+01   3.1442466121E+01   1.0500000000E-01     0.000  -1.
13    1    9    0    0    0  -1.8689180227E+01   2.0868393597E+01   3.3472198101E+01   4.3648303284E+01   1.0500000000E-01     0.000  -1.
-13    1    9    0    0    0  -1.7263590352E+01   1.9400444779E+01   3.1186778833E+01   4.0583679090E+01   1.0500000000E-01     0.000   1.
</event>
<event>
 13   1  9.2978750E-05  1.2500000E+02  7.5467720E-03  1.2380620E-01
   21   -1    0    0  502  501   0.0000000000E+00   0.0000000000E+00   4.5691533368E+01   4.5691533368E+01   0.0000000000E+00     0.000  -1.
   21   -1    0    0  501  502   0.0000000000E+00   0.0000000000E+00  -8.5491768651E+01   8.5491768651E+01   0.0000000000E+00     0.000  -1.
   25    2    1    2    0    0   0.0000000000E+00   0.0000000000E+00  -3.9800235283E+01   1.3118330202E+02   1.2500000000E+02  2.164E-08  -1.
3000002    2    3    0    0    0  -3.7669342433E+01  -1.5945222132E+01  -6.8369341264E+01   8.0296925801E+01   1.0000000000E+01  2.099E-09  -1.
3000002    2    3    0    0    0   3.7669342433E+01   1.5945222132E+01   2.8569105981E+01   5.0886376219E+01   1.0000000000E+01  7.176E-10  -1.
3000001    1    4    0    0    0  -2.5861414092E+01  -1.3623038993E+01  -5.5103288387E+01   6.2384071055E+01   1.0000000000E+00     0.000  -1.
3000022   2   4   0   0   0   -1.1807928340E+01   -2.3221831392E+00   -1.3266052877E+01   1.7912854746E+01   2.5000000000E-01   5.882724E+00   0.
3000001    1    5    0    0    0   3.3824635916E+00   2.5707421419E+00   6.9371673644E+00   8.1959786572E+00   1.0000000000E+00     0.000   1.
3000022   2   5   0   0   0   3.4286878841E+01   1.3374479990E+01   2.1631938617E+01   4.2690397562E+01   2.5000000000E-01   6.195484E+00   0.
13    1    7    0    0    0  -8.9591086987E+00  -1.7410150502E+00  -1.0055404922E+01   1.3580094080E+01   1.0500000000E-01     0.000  -1.
-13    1    7    0    0    0  -2.8488196417E+00  -5.8116808898E-01  -3.2106479548E+00   4.3327606659E+00   1.0500000000E-01     0.000   1.
13    1    9    0    0    0   1.6074658335E+01   6.2584666679E+00   1.0216247341E+01   2.0048585495E+01   1.0500000000E-01     0.000  -1.
-13    1    9    0    0    0   1.8212220507E+01   7.1160133221E+00   1.1415691276E+01   2.2641812067E+01   1.0500000000E-01     0.000   1.
</event>
<event>
 13   1  9.2978750E-05  1.2500000E+02  7.5467720E-03  1.2380620E-01
   21   -1    0    0  502  501   0.0000000000E+00   0.0000000000E+00   9.5648919711E+02   9.5648919711E+02   0.0000000000E+00     0.000   1.
   21   -1    0    0  501  502   0.0000000000E+00   0.0000000000E+00  -4.0839457589E+00   4.0839457589E+00   0.0000000000E+00     0.000   1.
   25    2    1    2    0    0   0.0000000000E+00   0.0000000000E+00   9.5240525135E+02   9.6057314287E+02   1.2500000000E+02  1.240E-07  -1.
3000002    2    3    0    0    0   1.2615235192E+01   6.0354461184E+01   4.9240390608E+02   4.9635009002E+02   1.0000000000E+01  4.073E-10   1.
3000002    2    3    0    0    0  -1.2615235192E+01  -6.0354461184E+01   4.6000134527E+02   4.6422305285E+02   1.0000000000E+01  2.602E-10   1.
3000001    1    4    0    0    0   1.2082106079E+01   4.5395053195E+01   3.4425703369E+02   3.4744869174E+02   1.0000000000E+00     0.000   1.
3000022   2   4   0   0   0   5.3312911330E-01   1.4959407988E+01   1.4814687238E+02   1.4890139828E+02   2.5000000000E-01   1.372661E+00   0.
3000001    1    5    0    0    0  -1.2271912969E+01  -5.5886285020E+01   4.4106990703E+02   4.4476683733E+02   1.0000000000E+00     0.000   1.
3000022   2   5   0   0   0   -3.4332222328E-01   -4.4681761635E+00   1.8931438246E+01   1.9456215522E+01   2.5000000000E-01   1.072442E+00   0.
13    1    7    0    0    0   1.8843400127E-01   5.7846169552E+00   5.7872015947E+01   5.8160799130E+01   1.0500000000E-01     0.000  -1.
-13    1    7    0    0    0   3.4469511203E-01   9.1747910329E+00   9.0274856435E+01   9.0740599153E+01   1.0500000000E-01     0.000   1.
13    1    9    0    0    0  -1.9261589537E-01  -2.8495902617E+00   1.2283714721E+01   1.2611817390E+01   1.0500000000E-01     0.000  -1.
-13    1    9    0    0    0  -1.5070632791E-01  -1.6185859019E+00   6.6477235248E+00   6.8443981314E+00   1.0500000000E-01     0.000   1.
</event>
<event>
 13   1  9.2978750E-05  1.2500000E+02  7.5467720E-03  1.2380620E-01
   21   -1    0    0  502  501   0.0000000000E+00   0.0000000000E+00   4.1562062143E+01   4.1562062143E+01   0.0000000000E+00     0.000  -1.
   21   -1    0    0  501  502   0.0000000000E+00   0.0000000000E+00  -9.3985952540E+01   9.3985952540E+01   0.0000000000E+00     0.000  -1.
   25    2    1    2    0    0   0.0000000000E+00   0.0000000000E+00  -5.2423890397E+01   1.3554801468E+02   1.2500000000E+02  1.496E-08  -1.
3000002    2    3    0    0    0   5.0390451039E+01  -3.3747832903E+01  -1.3937013076E+01   6.3026614339E+01   1.0000000000E+01  1.668E-09  -1.
3000002    2    3    0    0    0  -5.0390451039E+01   3.3747832903E+01  -3.8486877321E+01   7.2521400341E+01   1.0000000000E+01  2.758E-10  -1.
3000001    1    4    0    0    0   4.4450509024E+01  -3.1937971083E+01  -9.9434681445E+00   5.5639503126E+01   1.0000000000E+00     0.000  -1.
3000022   2   4   0   0   0   5.9399420150E+00   -1.8098618197E+00   -3.9935449316E+00   7.3871112128E+00   2.5000000000E-01   8.097595E-02   0.
3000001    1    5    0    0    0  -4.5010224099E+01   2.9103303847E+01  -3.7305944542E+01   6.5311990219E+01   1.0000000000E+00     0.000  -1.
3000022   2   5   0   0   0   -5.3802269396E+00   4.6445290561E+00   -1.1809327788E+00   7.2094101217E+00   2.5000000000E-01   7.502398E-01   0.
13    1    7    0    0    0   1.3726872861E+00  -4.2886674883E-01  -9.2516811470E-01   1.7132303155E+00   1.0500000000E-01     0.000   1.
-13    1    7    0    0    0   4.5672547289E+00  -1.3809950709E+00  -3.0683768169E+00   5.6738808972E+00   1.0500000000E-01     0.000  -1.
13    1    9    0    0    0  -3.6098653454E+00   3.0450008252E+00  -7.8229063519E-01   4.7881271365E+00   1.0500000000E-01     0.000   1.
-13    1    9    0    0    0  -1.7703615942E+00   1.5995282309E+00  -3.9864214363E-01   2.4212829852E+00   1.0500000000E-01     0.000  -1.
</event>
<event>
 13   1  9.2978750E-05  1.2500000E+02  7.5467720E-03  1.2380620E-01
   21   -1    0    0  502  501   0.0000000000E+00   0.0000000000E+00   4.9868494737E+02   4.9868494737E+02   0.0000000000E+00     0.000  -1.
   21   -1    0    0  501  502   0.0000000000E+00   0.0000000000E+00  -7.8331018825E+00   7.8331018825E+00   0.0000000000E+00     0.000  -1.
   25    2    1    2    0    0   0.0000000000E+00   0.0000000000E+00   4.9085184549E+02   5.0651804925E+02   1.2500000000E+02  2.307E-09  -1.
3000002    2    3    0    0    0  -6.9806735383E+00  -1.3307990111E+01   2.9594168641E+00   1.8291816532E+01   1.0000000000E+01  1.821E-10  -1.
3000002    2    3    0    0    0   6.9806735383E+00   1.3307990111E+01   4.8789242863E+02   4.8822623272E+02   1.0000000000E+01  9.286E-10  -1.
3000001    1    4    0    0    0  -1.9148947190E+00  -7.2739489678E+00   6.1706380164E+00   9.7802826595E+00   1.0000000000E+00     0.000   1.
3000022   2   4   0   0   0   -5.0657788193E+00   -6.0340411436E+00   -3.2112211523E+00   8.5115338722E+00   2.5000000000E-01   2.287836E+00   0.
3000001    1    5    0    0    0   4.1840868671E+00   5.8839086975E-01   1.8934446581E+02   1.8939424362E+02   1.0000000000E+00     0.000  -1.
3000022   2   5   0   0   0   2.7965866712E+00   1.2719599242E+01   2.9854796282E+02   2.9883198909E+02   2.5000000000E-01   1.140214E+00   0.
13    1    7    0    0    0  -1.5522820669E+00  -1.7864213667E+00  -9.8909015152E-01   2.5671395058E+00   1.0500000000E-01     0.000  -1.
-13    1    7    0    0    0  -3.5134967524E+00  -4.2476197769E+00  -2.2221310007E+00   5.9443943663E+00   1.0500000000E-01     0.000   1.
13    1    9    0    0    0   1.5867700240E+00   7.0892714088E+00   1.6791151560E+02   1.6806862796E+02   1.0500000000E-01     0.000  -1.
-13    1    9    0    0    0   1.2098166472E+00   5.6303278328E+00   1.3063644722E+02   1.3076336114E+02   1.0500000000E-01     0.000   1.
</event>
<event>
 13   1  9.2978750E-05  1.2500000E+02  7.5467720E-03  1.2380620E-01
   21   -1    0    0  502  501   0.0000000000E+00   0.0000000000E+00   4.3599173575E+02   4.3599173575E+02   0.0000000000E+00     0.000   1.
   21   -1    0    0  501  502   0.0000000000E+00   0.0000000000E+00  -8.9594588146E+00   8.9594588146E+00   0.0000000000E+00     0.000   1.
   25    2    1    2    0    0   0.0000000000E+00   0.0000000000E+00   4.2703227694E+02   4.4495119457E+02   1.2500000000E+02  7.375E-09  -1.
3000002    2    3    0    0    0   3.5528589975E+01   4.5612368143E+01   1.3688268279E+02   1.4892829711E+02   1.0000000000E+01  4.609E-11  -1.
3000002    2    3    0    0    0  -3.5528589975E+01  -4.5612368143E+01   2.9014959415E+02   2.9602289746E+02   1.0000000000E+01  1.433E-09  -1.
3000001    1    4    0    0    0   2.2360023881E+01   2.0872986673E+01   6.8586060942E+01   7.5104593709E+01   1.0000000000E+00     0.000  -1.
3000022   2   4   0   0   0   1.3168566094E+01   2.4739381470E+01   6.8296621847E+01   7.3823703404E+01   2.5000000000E-01   7.191018E+00   0.
3000001    1    5    0    0    0  -4.4405648740E+00  -1.2156489540E+01   6.7765194570E+01   6.8997249579E+01   1.0000000000E+00     0.000   1.
3000022   2   5   0   0   0   -3.1088025101E+01   -3.3455878603E+01   2.2238439958E+02   2.2702564788E+02   2.5000000000E-01   1.764165E-01   0.
13    1    7    0    0    0   7.5238914810E+00   1.4006714050E+01   3.8676184818E+01   4.1816925743E+01   1.0500000000E-01     0.000   1.
-13    1    7    0    0    0   5.6446746126E+00   1.0732667420E+01   2.9620437029E+01   3.2006777661E+01   1.0500000000E-01     0.000  -1.
13    1    9    0    0    0  -1.2934778270E+01  -1.3861411731E+01   9.2067488216E+01   9.3999365080E+01   1.0500000000E-01     0.000   1.
-13    1    9    0    0    0  -1.8153246831E+01  -1.9594466873E+01   1.3031691136E+02   1.3302628280E+02   1.0500000000E-01     0.000  -1.
</event>
<event>
 13   1  9.2978750E-05  1.2500000E+02  7.5467720E-03  1.2380620E-01
   21   -1    0    0  502  501   0.0000000000E+00   0.0000000000E+00   7.4256192424E+00   7.4256192424E+00   0.0000000000E+00     0.000  -1.
   21   -1    0    0  501  502   0.0000000000E+00   0.0000000000E+00  -5.2605040367E+02   5.2605040367E+02   0.0000000000E+00     0.000  -1.
   25    2    1    2    0    0   0.0000000000E+00   0.0000000000E+00  -5.1862478443E+02   5.3347602291E+02   1.2500000000E+02  3.699E-08  -1.
3000002    2    3    0    0    0  -5.4450348048E+01   6.5432879426E+00  -1.3870659616E+02   1.4948971483E+02   1.0000000000E+01  2.023E-10   1.
3000002    2    3    0    0    0   5.4450348048E+01  -6.5432879426E+00  -3.7991818827E+02   3.8398630808E+02   1.0000000000E+01  7.252E-11   1.
3000001    1    4    0    0    0  -4.5509523740E+01   6.9643324516E+00  -1.2396211176E+02   1.3223926735E+02   1.0000000000E+00     0.000  -1.
3000022   2   4   0   0   0   -8.9408243089E+00   -4.2104450894E-01   -1.4744484407E+01   1.7250447479E+01   2.5000000000E-01   1.303772E+01   0.
3000001    1    5    0    0    0   1.3997817464E+00  -2.3929207779E-01  -2.6071750293E+01   2.6129539088E+01   1.0000000000E+00     0.000   1.
3000022   2   5   0   0   0   5.3050566302E+01   -6.3039958648E+00   -3.5384643797E+02   3.5785676900E+02   2.5000000000E-01   9.108986E+00   0.
13    1    7    0    0    0  -3.5180092446E+00  -1.3685430832E-01  -5.9071921186E+00   6.8775767442E+00   1.0500000000E-01     0.000  -1.
-13    1    7    0    0    0  -5.4228150643E+00  -2.8419020063E-01  -8.8372922884E+00   1.0372870735E+01   1.0500000000E-01     0.000   1.
13    1    9    0    0    0   3.2464069520E+01  -3.7955349125E+00  -2.1650380191E+02   2.1895714001E+02   1.0500000000E-01     0.000   1.
-13    1    9    0    0    0   2.0586496782E+01  -2.5084609523E+00  -1.3734263606E+02   1.3889962899E+02   1.0500000000E-01     0.000  -1.
</event>
<event>
 13   1  9.2978750E-05  1.2500000E+02  7.5467720E-03  1.2380620E-01
   21   -1    0    0  502  501   0.0000000000E+00   0.0000000000E+00   1.0201872225E+02   1.0201872225E+02   0.0000000000E+00     0.000  -1.
   21   -1    0    0  501  502   0.0000000000E+00   0.0000000000E+00  -3.8289540525E+01   3.8289540525E+01   0.0000000000E+00     0.000  -1.
   25    2    1    2    0    0   0.0000000000E+00   0.0000000000E+00   6.3729181726E+01   1.4030826278E+02   1.2500000000E+02  2.363E-08  -1.
3000002    2    3    0    0    0  -1.1460890581E+01  -3.5518155922E+01  -2.3277618453E+01   4.5108080583E+01   1.0000000000E+01  1.463E-09   1.
3000002    2    3    0    0    0   1.1460890581E+01   3.5518155922E+01   8.7006800179E+01   9.5200182197E+01   1.0000000000E+01  3.572E-10   1.
3000001    1    4    0    0    0  -1.7733384310E+00  -1.4358532714E+01  -1.3671217949E+01   1.9930238109E+01   1.0000000000E+00     0.000  -1.
3000022   2   4   0   0   0   -9.6875521500E+00   -2.1159623208E+01   -9.6064005041E+00   2.5177842474E+01   2.5000000000E-01   3.037457E+00   0.
3000001    1    5    0    0    0   3.8470936251E+00   7.1495168765E+00   1.0948884903E+01   1.3667252890E+01   1.0000000000E+00     0.000   1.
3000022   2   5   0   0   0   7.6137969558E+00   2.8368639046E+01   7.6057915276E+01   8.1532929307E+01   2.5000000000E-01   2.165855E+01   0.
13    1    7    0    0    0  -3.8671975108E+00  -8.3418837138E+00  -3.8440118786E+00   9.9664282872E+00   1.0500000000E-01     0.000  -1.
-13    1    7    0    0    0  -5.8203546392E+00  -1.2817739495E+01  -5.7623886256E+00   1.5211414186E+01   1.0500000000E-01     0.000   1.
13    1    9    0    0    0   3.8699997303E+00   1.4280689683E+01   3.8152713642E+01   4.0921334032E+01   1.0500000000E-01     0.000   1.
-13    1    9    0    0    0   3.7437972255E+00   1.4087949362E+01   3.7905201634E+01   4.0611595275E+01   1.0500000000E-01     0.000  -1.
</event>
<event>
 13   1  9.2978750E-05  1.2500000E+02  7.5467720E-03  1.2380620E-01
   21   -1    0    0  502  501   0.0000000000E+00   0.0000000000E+00   2.6773119746E+02   2.6773119746E+02   0.0000000000E+00     0.000  -1.
   21   -1    0    0  501  502   0.0000000000E+00   0.0000000000E+00  -1.4590193586E+01   1.4590193586E+01   0.0000000000E+00     0.000  -1.
   25    2    1    2    0    0   0.0000000000E+00   0.0000000000E+00   2.5314100388E+02   2.8232139105E+02   1.2500000000E+02  1.125E-08  -1.
3000002    2    3    0    0    0  -3.8679942274E+01  -3.4223490505E+01   5.0350342980E+01   7.2818557215E+01   1.0000000000E+01  1.620E-09  -1.
3000002    2    3    0    0    0   3.8679942274E+01   3.4223490505E+01   2.0279066090E+02   2.0950283383E+02   1.0000000000E+01  7.952E-11  -1.
3000001    1    4    0    0    0  -1.3011500855E+01  -1.6557442235E+01   2.4574494071E+01   3.2378292214E+01   1.0000000000E+00     0.000   1.
3000022   2   4   0   0   0   -2.5668441419E+01   -1.7666048270E+01   2.5775848909E+01   4.0440265001E+01   2.5000000000E-01   5.955314E+00   0.
3000001    1    5    0    0    0   9.4446072134E+00   4.6232153624E+00   3.1166700770E+01   3.2908022769E+01   1.0000000000E+00     0.000   1.
3000022   2   5   0   0   0   2.9235335061E+01   2.9600275143E+01   1.7162396013E+02   1.7659481107E+02   2.5000000000E-01   2.314139E+00   0.
13    1    7    0    0    0  -1.1019369800E+01  -7.6032245007E+00   1.0992146528E+01   1.7322639634E+01   1.0500000000E-01     0.000  -1.
-13    1    7    0    0    0  -1.4649071618E+01  -1.0062823770E+01   1.4783702381E+01   2.3117625366E+01   1.0500000000E-01     0.000   1.
13    1    9    0    0    0   1.6863899139E+01   1.6989679345E+01   9.8861466682E+01   1.0171843942E+02   1.0500000000E-01     0.000   1.
-13    1    9    0    0    0   1.2371435922E+01   1.2610595797E+01   7.2762493449E+01   7.4876371647E+01   1.0500000000E-01     0.000  -1.
</event>
<event>
 13   1  9.2978750E-05  1.2500000E+02  7.5467720E-03  1.2380620E-01
   21   -1    0    0  502  501   0.0000000000E+00   0.0000000000E+00   3.1022546917E+01   3.1022546917E+01   0.0000000000E+00     0.000   1.
   21   -1    0    0  501  502   0.0000000000E+00   0.0000000000E+00  -1.2591648295E+02   1.2591648295E+02   0.0000000000E+00     0.000   1.
   25    2    1    2    0    0   0.0000000000E+00   0.0000000000E+00  -9.4893936036E+01   1.5693902987E+02   1.2500000000E+02  6.352E-08  -1.
3000002    2    3    0    0    0  -3.9857512683E+00  -1.8728027250E+01   2.6186708508E+01   3.3946559771E+01   1.0000000000E+01  1.008E-09  -1.
3000002    2    3    0    0    0   3.9857512683E+00   1.8728027250E+01  -1.2108064454E+02   1.2299247010E+02   1.0000000000E+01  2.344E-10  -1.
3000001    1    4    0    0    0   2.4054385629E+00  -1.0973245294E+00   3.9378930667E+00   4.8473969929E+00   1.0000000000E+00     0.000   1.
3000022   2   4   0   0   0   -6.3911898312E+00   -1.7630702721E+01   2.2248815441E+01   2.9099162778E+01   2.5000000000E-01   2.580671E-01   0.
3000001    1    5    0    0    0   6.4220892716E+00   1.4561549582E+01  -7.6089294493E+01   7.7742283818E+01   1.0000000000E+00     0.000  -1.
3000022   2   5   0   0   0   -2.4363380033E+00   4.1664776682E+00   -4.4991350051E+01   4.5250186281E+01   2.5000000000E-01   3.104347E+00   0.
13    1    7    0    0    0  -3.7866870346E+00  -1.0289734693E+01   1.2951208690E+01   1.6969456983E+01   1.0500000000E-01     0.000   1.
-13    1    7    0    0    0  -2.6045027966E+00  -7.3409680273E+00   9.2976067510E+00   1.2129705796E+01   1.0500000000E-01     0.000  -1.
13    1    9    0    0    0  -1.0655682114E+00   1.9506997323E+00  -2.0553928519E+01   2.0674033656E+01   1.0500000000E-01     0.000   1.
-13    1    9    0    0    0  -1.3707697918E+00   2.2157779359E+00  -2.4437421532E+01   2.4576152625E+01   1.0500000000E-01     0.000  -1.
</event>
<event>
 13   1  9.2978750E-05  1.2500000E+02  7.5467720E-03  1.2380620E-01
   21   -1    0    0  502  501   0.0000000000E+00   0.0000000000E+00   3.6688068875E+02   3.6688068875E+02   0.0000000000E+00     0.000   1.
   21   -1    0    0  501  502   0.0000000000E+00   0.0000000000E+00  -1.0647194360E+01   1.0647194360E+01   0.0000000000E+00     0.000   1.
   25    2    1    2    0    0   0.0000000000E+00   0.0000000000E+00   3.5623349439E+02   3.7752788311E+02   1.2500000000E+02  9.150E-09  -1.
3000002    2    3    0    0    0   4.3353272025E+01   2.5678886401E+01   2.8563578045E+02   2.9021838411E+02   1.0000000000E+01  9.052E-10  -1.
3000002    2    3    0    0    0  -4.3353272025E+01  -2.5678886401E+01   7.0597713939E+01   8.7309498999E+01   1.0000000000E+01  8.129E-10  -1.
3000001    1    4    0    0    0   2.1361994650E+01   1.6817175377E+01   1.7164589032E+02   1.7378856080E+02   1.0000000000E+00     0.000  -1.
3000022   2   4   0   0   0   2.1991277375E+01   8.8617110238E+00   1.1398989013E+02   1.1642982331E+02   2.5000000000E-01   6.200560E+00   0.
3000001    1    5    0    0    0  -8.2139588269E+00  -4.9896816532E+00   7.7273864160E+00   1.2372491400E+01   1.0000000000E+00     0.000   1.
3000022   2   5   0   0   0   -3.5139313198E+01   -2.0689204748E+01   6.2870327523E+01   7.4937007599E+01   2.5000000000E-01   9.875251E-02   0.
13    1    7    0    0    0   9.1518682391E+00   3.7256364433E+00   4.7773095631E+01   4.8784390438E+01   1.0500000000E-01     0.000  -1.
-13    1    7    0    0    0   1.2839409136E+01   5.1360745805E+00   6.6216794502E+01   6.7645432870E+01   1.0500000000E-01     0.000   1.
13    1    9    0    0    0  -2.0733926984E+01  -1.2246582322E+01   3.7026815195E+01   4.4168660555E+01   1.0500000000E-01     0.000   1.
-13    1    9    0    0    0  -1.4405386214E+01  -8.4426224261E+00   2.5843512327E+01   3.0768347044E+01   1.0500000000E-01     0.000  -1.
</event>
<event>
 13   1  9.2978750E-05  1.2500000E+02  7.5467720E-03  1.2380620E-01
   21   -1    0    0  502  501   0.0000000000E+00   0.0000000000E+00   7.3660830498E+01   7.3660830498E+01   0.0000000000E+00     0.000  -1.
   21   -1    0    0  501  502   0.0000000000E+00   0.0000000000E+00  -5.3030219366E+01   5.3030219366E+01   0.0000000000E+00     0.000  -1.
   25    2    1    2    0    0   0.0000000000E+00   0.0000000000E+00   2.0630611131E+01   1.2669104986E+02   1.2500000000E+02  1.536E-09  -1.
3000002    2    3    0    0    0   6.5269399873E+00   1.8823668940E+01  -4.8863979235E+01   5.3708657818E+01   1.0000000000E+01  1.281E-11   1.
3000002    2    3    0    0    0  -6.5269399873E+00  -1.8823668940E+01   6.9494590366E+01   7.2982392042E+01   1.0000000000E+01  3.654E-10   1.
3000001    1    4    0    0    0  -1.7131984417E+00   2.8205090639E+00  -3.5460453707E+00   4.9461862127E+00   1.0000000000E+00     0.000  -1.
3000022   2   4   0   0   0   8.2401384290E+00   1.6003159876E+01   -4.5317933864E+01   4.8762471606E+01   2.5000000000E-01   2.056743E+00   0.
3000001    1    5    0    0    0  -1.7781400132E+00   7.2921964946E-01   6.4278114246E+00   6.7830894815E+00   1.0000000000E+00     0.000  -1.
3000022   2   5   0   0   0   -4.7487999741E+00   -1.9552888590E+01   6.3066778941E+01   6.6199302560E+01   2.5000000000E-01   5.944252E+00   0.
13    1    7    0    0    0   3.6689073414E+00   7.0665064857E+00  -2.0210463571E+01   2.1722574842E+01   1.0500000000E-01     0.000   1.
-13    1    7    0    0    0   4.5712310876E+00   8.9366533908E+00  -2.5107470294E+01   2.7039896764E+01   1.0500000000E-01     0.000  -1.
13    1    9    0    0    0  -3.4963699082E+00  -1.4262305143E+01   4.5966818862E+01   4.8255542809E+01   1.0500000000E-01     0.000   1.
-13    1    9    0    0    0  -1.2524300659E+00  -5.2905834470E+00   1.7099960080E+01   1.7943759751E+01   1.0500000000E-01     0.000  -1.
</event>
<event>
 13   1  9.2978750E-05  1.2500000E+02  7.5467720E-03  1.2380620E-01
   21   -1    0    0  502  501   0.0000000000E+00   0.0000000000E+00   1.3938776626E+01   1.3938776626E+01   0.0000000000E+00     0.000  -1.
   21   -1    0    0  501  502   0.0000000000E+00   0.0000000000E+00  -2.8024338898E+02   2.8024338898E+02   0.0000000000E+00     0.000  -1.
   25    2    1    2    0    0   0.0000000000E+00   0.0000000000E+00  -2.6630461235E+02   2.9418216560E+02   1.2500000000E+02  2.471E-09  -1.
3000002    2    3    0    0    0   4.4676522692E+01  -4.1205102265E+01  -1.0820145519E+02   1.2450464665E+02   1.0000000000E+01  2.651E-10  -1.
3000002    2    3    0    0    0  -4.4676522692E+01   4.1205102265E+01  -1.5810315716E+02   1.6967751895E+02   1.0000000000E+01  3.110E-10  -1.
3000001    1    4    0    0    0   2.6498310650E+01  -3.0389849283E+01  -7.4420362363E+01   8.4646876735E+01   1.0000000000E+00     0.000   1.
3000022   2   4   0   0   0   1.8178212042E+01   -1.0815252982E+01   -3.3781092824E+01   3.9857769914E+01   2.5000000000E-01   2.685895E+00   0.
3000001    1    5    0    0    0  -3.6248577211E+01   3.0010071509E+01  -1.3031203133E+02   1.3855247833E+02   1.0000000000E+00     0.000  -1.
3000022   2   5   0   0   0   -8.4279454808E+00   1.1195030757E+01   -2.7791125835E+01   3.1125040624E+01   2.5000000000E-01   2.309713E+00   0.
13    1    7    0    0    0   1.0834050981E+01  -6.3841694142E+00  -2.0148734995E+01   2.3751143692E+01   1.0500000000E-01     0.000  -1.
-13    1    7    0    0    0   7.3441610610E+00  -4.4310835681E+00  -1.3632357829E+01   1.6106626222E+01   1.0500000000E-01     0.000   1.
13    1    9    0    0    0  -2.5876349610E+00   3.3657470271E+00  -8.3810936686E+00   9.3956300387E+00   1.0500000000E-01     0.000  -1.
-13    1    9    0    0    0  -5.8403105198E+00   7.8292837295E+00  -1.9410032167E+01   2.1729410586E+01   1.0500000000E-01     0.000   1.
</event>
<event>
 13   1  9.2978750E-05  1.2500000E+02  7.5467720E-03  1.2380620E-01
   21   -1    0    0  502  501   0.0000000000E+00   0.0000000000E+00   3.3434475535E+01   3.3434475535E+01   0.0000000000E+00     0.000  -1.
   21   -1    0    0  501  502   0.0000000000E+00   0.0000000000E+00  -1.1683299760E+02   1.1683299760E+02   0.0000000000E+00     0.000  -1.
   25    2    1    2    0    0   0.0000000000E+00   0.0000000000E+00  -8.3398522068E+01   1.5026747314E+02   1.2500000000E+02  6.060E-08  -1.
3000002    2    3    0    0    0  -3.2895520857E+00  -6.1590039182E+01  -3.9958887753E+01   7.4167828537E+01   1.0000000000E+01  1.571E-12   1.
3000002    2    3    0    0    0   3.2895520857E+00   6.1590039182E+01  -4.3439634315E+01   7.6099644603E+01   1.0000000000E+01  4.822E-10   1.
3000001    1    4    0    0    0  -8.2407685524E-01  -3.5463849956E+01  -1.7225745710E+01   3.9447307533E+01   1.0000000000E+00     0.000  -1.
3000022   2   4   0   0   0   -2.4654752305E+00   -2.6126189226E+01   -2.2733142043E+01   3.4720521004E+01   2.5000000000E-01   6.722584E+00   0.
3000001    1    5    0    0    0   5.3748336321E+00   5.7277611512E+01  -4.1416076443E+01   7.0893617520E+01   1.0000000000E+00     0.000   1.
3000022   2   5   0   0   0   -2.0852815464E+00   4.3124276696E+00   -2.0235578720E+00   5.2060270836E+00   2.5000000000E-01   2.322061E+00   0.
13    1    7    0    0    0  -6.0200589430E-01  -6.2597315926E+00  -5.4686059715E+00   8.3344662085E+00   1.0500000000E-01     0.000   1.
-13    1    7    0    0    0  -1.8634693362E+00  -1.9866457634E+01  -1.7264536072E+01   2.6386054795E+01   1.0500000000E-01     0.000  -1.
13    1    9    0    0    0  -6.0786070698E-01   1.2178061983E+00  -5.3546816374E-01   1.4663893515E+00   1.0500000000E-01     0.000   1.
-13    1    9    0    0    0  -1.4774208394E+00   3.0946214712E+00  -1.4880897083E+00   3.7396377320E+00   1.0500000000E-01     0.000  -1.
</event>
<event>
 13   1  9.2978750E-05  1.2500000E+02  7.5467720E-03  1.2380620E-01
   21   -1    0    0  502  501   0.0000000000E+00   0.0000000000E+00   3.2204214264E+02   3.2204214264E+02   0.0000000000E+00     0.000   1.
   21   -1    0    0  501  502   0.0000000000E+00   0.0000000000E+00  -1.2129623682E+01   1.2129623682E+01   0.0000000000E+00     0.000   1.
   25    2    1    2    0    0   0.0000000000E+00   0.0000000000E+00   3.0991251895E+02   3.3417176632E+02   1.2500000000E+02  3.895E-08  -1.
3000002    2    3    0    0    0   4.1526148227E+01  -9.6346566742E+00   3.5728496566E+01   5.6513476823E+01   1.0000000000E+01  5.402E-10   1.
3000002    2    3    0    0    0  -4.1526148227E+01   9.6346566742E+00   2.7418402238E+02   2.7765828950E+02   1.0000000000E+01  2.005E-09   1.
3000001    1    4    0    0    0   3.9625722798E+01  -1.1328582852E+01   3.3792735623E+01   5.3305568917E+01   1.0000000000E+00     0.000   1.
3000022   2   4   0   0   0   1.9004254283E+00   1.6939261775E+00   1.9357609432E+00   3.2079079058E+00   2.5000000000E-01   6.713761E-01   0.
3000001    1    5    0    0    0  -2.9346392017E+01   9.9791337832E+00   2.1568897255E+02   2.1790715160E+02   1.0000000000E+00     0.000   1.
3000022   2   5   0   0   0   -1.2179756210E+01   -3.4447710900E-01   5.8495049831E+01   5.9751137902E+01   2.5000000000E-01   4.633559E+00   0.
13    1    7    0    0    0   5.8366092560E-01   5.4594715547E-01   5.5367875221E-01   9.7790773250E-01   1.0500000000E-01     0.000  -1.
-13    1    7    0    0    0   1.3167645027E+00   1.1479790220E+00   1.3820821909E+00   2.2300001733E+00   1.0500000000E-01     0.000   1.
13    1    9    0    0    0  -4.4637181669E+00  -1.8506234040E-01   2.1421158580E+01   2.1882323639E+01   1.0500000000E-01     0.000  -1.
-13    1    9    0    0    0  -7.7160380429E+00  -1.5941476860E-01   3.7073891251E+01   3.7868814262E+01   1.0500000000E-01     0.000   1.
</event>
<event>
 13   1  9.2978750E-05  1.2500000E+02  7.5467720E-03  1.2380620E-01
   21   -1    0    0  502  501   0.0000000000E+00   0.0000000000E+00   9.8584058955E+00   9.8584058955E+00   0.0000000000E+00     0.000  -1.
   21   -1    0    0  501  502   0.0000000000E+00   0.0000000000E+00  -3.9623546052E+02   3.9623546052E+02   0.0000000000E+00     0.000  -1.
   25    2    1    2    0    0   0.0000000000E+00   0.0000000000E+00  -3.8637705463E+02   4.0609386642E+02   1.2500000000E+02  1.201E-08  -1.
3000002    2    3    0    0    0  -4.6442505141E+01  -5.7932895698E+00  -3.2377786953E+02   3.2729585589E+02   1.0000000000E+01  1.989E-11  -1.
3000002    2    3    0    0    0   4.6442505141E+01   5.7932895698E+00  -6.2599185103E+01   7.8798010529E+01   1.0000000000E+01  1.649E-10  -1.
3000001    1    4    0    0    0  -1.8776464391E+01  -2.7669136617E+00  -1.6571553266E+02   1.6680182610E+02   1.0000000000E+00     0.000   1.
3000022   2   4   0   0   0   -2.7666040749E+01   -3.0263759081E+00   -1.5806233687E+02   1.6049402979E+02   2.5000000000E-01   9.133433E+00   0.
3000001    1    5    0    0    0   4.8524602887E+00   2.0258251286E+00  -1.2354168404E+01   1.3463870739E+01   1.0000000000E+00     0.000   1.
3000022   2   5   0   0   0   4.1590044852E+01   3.7674644412E+00   -5.0245016698E+01   6.5334139790E+01   2.5000000000E-01   1.199263E+00   0.
13    1    7    0    0    0  -1.6659148630E+01  -1.7691492226E+00  -9.4947350044E+01   9.6414041650E+01   1.0500000000E-01     0.000  -1.
-13    1    7    0    0    0  -1.1006892119E+01  -1.2572266855E+00  -6.3114986822E+01   6.4079988137E+01   1.0500000000E-01     0.000   1.
13    1    9    0    0    0   1.5151479200E+01   1.3854117042E+00  -1.8395838896E+01   2.3872674781E+01   1.0500000000E-01     0.000  -1.
-13    1    9    0    0    0   2.6438565653E+01   2.3820527370E+00  -3.1849177802E+01   4.1461465009E+01   1.0500000000E-01     0.000   1.
</event>
<event>
 13   1  9.2978750E-05  1.2500000E+02  7.5467720E-03  1.2380620E-01
   21   -1    0    0  502  501   0.0000000000E+00   0.0000000000E+00   7.7478761362E+00   7.7478761362E+00   0.0000000000E+00     0.000   1.
   21   -1    0    0  501  502   0.0000000000E+00   0.0000000000E+00  -5.0417042443E+02   5.0417042443E+02   0.0000000000E+00     0.000   1.
   25    2    1    2    0    0   0.0000000000E+00   0.0000000000E+00  -4.9642254829E+02   5.1191830056E+02   1.2500000000E+02  7.510E-09  -1.
3000002    2    3    0    0    0   7.9612498759E+00  -6.0571481532E+01  -2.8343223533E+02   2.9011397398E+02   1.0000000000E+01  1.196E-09   1.
3000002    2    3    0    0    0  -7.9612498759E+00   6.0571481532E+01  -2.1299031296E+02   2.2180432658E+02   1.0000000000E+01  2.579E-09   1.
3000001    1    4    0    0    0   2.9458943331E+00  -2.6720806011E+01  -1.0233378617E+02   1.0581060230E+02   1.0000000000E+00     0.000   1.
3000022   2   4   0   0   0   5.0153555428E+00   -3.3850675521E+01   -1.8109844916E+02   1.8430337168E+02   2.5000000000E-01   1.850816E-01   0.
3000001    1    5    0    0    0  -3.4148658993E+00   5.0830055835E+01  -1.6869240940E+02   1.7621999000E+02   1.0000000000E+00     0.000   1.
3000022   2   5   0   0   0   -4.5463839766E+00   9.7414256970E+00   -4.4297903557E+01   4.5584336580E+01   2.5000000000E-01   1.222456E+01   0.
13    1    7    0    0    0   2.4207840581E+00  -1.6767458141E+01  -8.9792955416E+01   9.1377205666E+01   1.0500000000E-01     0.000   1.
-13    1    7    0    0    0   2.5945714847E+00  -1.7083217380E+01  -9.1305493745E+01   9.2926166015E+01   1.0500000000E-01     0.000  -1.
13    1    9    0    0    0  -2.6601577262E+00   5.7112355082E+00  -2.5687899067E+01   2.6449458097E+01   1.0500000000E-01     0.000  -1.
-13    1    9    0    0    0  -1.8862262504E+00   4.0301901888E+00  -1.8610004490E+01   1.9134878483E+01   1.0500000000E-01     0.000   1.
</event>
<event>
 13   1  9.2978750E-05  1.2500000E+02  7.5467720E-03  1.2380620E-01
   21   -1    0    0  502  501   0.0000000000E+00   0.0000000000E+00   2.9227800184E+01   2.9227800184E+01   0.0000000000E+00     0.000   1.
   21   -1    0    0  501  502   0.0000000000E+00   0.0000000000E+00  -1.3364844345E+02   1.3364844345E+02   0.0000000000E+00     0.000   1.
   25    2    1    2    0    0   0.0000000000E+00   0.0000000000E+00  -1.0442064326E+02   1.6287624363E+02   1.2500000000E+02  2.361E-08  -1.
3000002    2    3    0    0    0   1.8770328337E+01   4.1349638357E+01  -1.0662767673E+02   1.1632531652E+02   1.0000000000E+01  7.378E-10   1.
3000002    2    3    0    0    0  -1.8770328337E+01  -4.1349638357E+01   2.2070334706E+00   4.6550927111E+01   1.0000000000E+01  1.340E-09   1.
3000001    1    4    0    0    0   9.1678224726E+00   1.2149164512E+01  -4.3817341049E+01   4.6396234155E+01   1.0000000000E+00     0.000  -1.
3000022   2   4   0   0   0   9.6025058648E+00   2.9200473845E+01   -6.2810335682E+01   6.9929082363E+01   2.5000000000E-01   6.806973E+00   0.
3000001    1    5    0    0    0  -5.1524831583E+00  -2.2994255000E+01  -2.3254892998E-02   2.3585681811E+01   1.0000000000E+00     0.000   1.
3000022   2   5   0   0   0   -1.3617845179E+01   -1.8355383358E+01   2.2302883636E+00   2.2965245301E+01   2.5000000000E-01   2.217705E+00   0.
13    1    7    0    0    0   4.5746140192E+00   1.3695877924E+01  -2.9493855088E+01   3.2839041985E+01   1.0500000000E-01     0.000  -1.
-13    1    7    0    0    0   5.0278918456E+00   1.5504595921E+01  -3.3316480594E+01   3.7090040378E+01   1.0500000000E-01     0.000   1.
13    1    9    0    0    0  -6.9254249765E+00  -9.2459409217E+00   1.0846398551E+00   1.1603292776E+01   1.0500000000E-01     0.000   1.
-13    1    9    0    0    0  -6.6924202026E+00  -9.1094424360E+00   1.1456485085E+00   1.1361952524E+01   1.0500000000E-01     0.000  -1.
</event>
<event>
 13   1  9.2978750E-05  1.2500000E+02  7.5467720E-03  1.2380620E-01
   21   -1    0    0  502  501   0.0000000000E+00   0.0000000000E+00   6.4123009372E+00   6.4123009372E+00   0.0000000000E+00     0.000  -1.
   21   -1    0    0  501  502   0.0000000000E+00   0.0000000000E+00  -6.0918070413E+02   6.0918070413E+02   0.0000000000E+00     0.000  -1.
   25    2    1    2    0    0   0.0000000000E+00   0.0000000000E+00  -6.0276840319E+02   6.1559300506E+02   1.2500000000E+02  3.238E-09  -1.
3000002    2    3    0    0    0  -4.9688168094E+01   3.4855492512E+00  -1.2210817015E+02   1.3225531490E+02   1.0000000000E+01  3.757E-11  -1.
3000002    2    3    0    0    0   4.9688168094E+01  -3.4855492512E+00  -4.8066023304E+02   4.8333769016E+02   1.0000000000E+01  1.093E-09  -1.
3000001    1    4    0    0    0  -8.2823994611E+00   2.0736558455E-02  -3.1291924147E+01   3.2384920683E+01   1.0000000000E+00     0.000  -1.
3000022   2   4   0   0   0   -4.1405768633E+01   3.4648126927E+00   -9.0816246000E+01   9.9870394215E+01   2.5000000000E-01   1.443121E+00   0.
3000001    1    5    0    0    0   1.3619695615E+01   1.3964340127E+00  -9.9293500205E+01   1.0023794351E+02   1.0000000000E+00     0.000   1.
3000022   2   5   0   0   0   3.6068472479E+01   -4.8819832639E+00   -3.8136673284E+02   3.8309974665E+02   2.5000000000E-01   2.031262E+00   0.
13    1    7    0    0    0  -1.5474474089E+01   1.2517582651E+00  -3.4033749834E+01   3.7407664988E+01   1.0500000000E-01     0.000  -1.
-13    1    7    0    0    0  -2.5931294544E+01   2.2130544277E+00  -5.6782496167E+01   6.2462729228E+01   1.0500000000E-01     0.000   1.
13    1    9    0    0    0   1.0325279544E+01  -1.4125366510E+00  -1.0960949733E+02   1.1010385819E+02   1.0500000000E-01     0.000  -1.
-13    1    9    0    0    0   2.5743192935E+01  -3.4694466130E+00  -2.7175723551E+02   2.7299588846E+02   1.0500000000E-01     0.000   1.
</event>
<event>
 13   1  9.2978750E-05  1.2500000E+02  7.5467720E-03  1.2380620E-01
   21   -1    0    0  502  501   0.0000000000E+00   0.0000000000E+00   8.5346516177E+00   8.5346516177E+00   0.0000000000E+00     0.000   1.
   21   -1    0    0  501  502   0.0000000000E+00   0.0000000000E+00  -4.5769296451E+02   4.5769296451E+02   0.0000000000E+00     0.000   1.
   25    2    1    2    0    0   0.0000000000E+00   0.0000000000E+00  -4.4915831289E+02   4.6622761613E+02   1.2500000000E+02  4.104E-11  -1.
3000002    2    3    0    0    0   3.9774430368E+01  -3.6768004709E+01  -1.1441622477E+02   1.2698410913E+02   1.0000000000E+01  1.005E-09   1.
3000002    2    3    0    0    0  -3.9774430368E+01   3.6768004709E+01  -3.3474208812E+02   3.3924350700E+02   1.0000000000E+01  1.536E-09   1.
3000001    1    4    0    0    0   8.4116733506E+00  -9.9658142254E+00  -1.9394449182E+01   2.3392698879E+01   1.0000000000E+00     0.000  -1.
3000022   2   4   0   0   0   3.1362757018E+01   -2.6802190483E+01   -9.5021775586E+01   1.0359141025E+02   2.5000000000E-01   8.774197E+00   0.
3000001    1    5    0    0    0  -3.2552454050E-01  -1.2193876084E-01  -7.4549923486E+00   7.5297905818E+00   1.0000000000E+00     0.000  -1.
3000022   2   5   0   0   0   -3.9448905828E+01   3.6889943469E+01   -3.2728709577E+02   3.3171371642E+02   2.5000000000E-01   1.567653E+00   0.
13    1    7    0    0    0   7.3186525570E+00  -6.2384175752E+00  -2.2150760795E+01   2.4148452494E+01   1.0500000000E-01     0.000   1.
-13    1    7    0    0    0   2.4044104461E+01  -2.0563772908E+01  -7.2871014791E+01   7.9442957757E+01   1.0500000000E-01     0.000  -1.
13    1    9    0    0    0  -1.3515747984E+01   1.2696239361E+01  -1.1259415173E+02   1.1411101597E+02   1.0500000000E-01     0.000   1.
-13    1    9    0    0    0  -2.5933157844E+01   2.4193704108E+01  -2.1469294405E+02   2.1760270045E+02   1.0500000000E-01     0.000  -1.
</event>
<event>
 13   1  9.2978750E-05  1.2500000E+02  7.5467720E-03  1.2380620E-01
   21   -1    0    0  502  501   0.0000000000E+00   0.0000000000E+00   7.2401933302E+01   7.2401933302E+01   0.0000000000E+00     0.000   1.
   21   -1    0    0  501  502   0.0000000000E+00   0.0000000000E+00  -5.3952288590E+01   5.3952288590E+01   0.0000000000E+00     0.000   1.
   25    2    1    2    0    0   0.0000000000E+00   0.0000000000E+00   1.8449644712E+01   1.2635422189E+02   1.2500000000E+02  8.292E-08  -1.
3000002    2    3    0    0    0   8.3167006510E+00   3.4739961900E+01   6.0071042731E+01   7.0601435094E+01   1.0000000000E+01  5.339E-10  -1.
3000002    2    3    0    0    0  -8.3167006510E+00  -3.4739961900E+01  -4.1621398019E+01   5.5752786796E+01   1.0000000000E+01  1.497E-10  -1.
3000001    1    4    0    0    0   7.5526382355E+00   1.7519369836E+01   3.8574911082E+01   4.3046421788E+01   1.0000000000E+00     0.000  -1.
3000022   2   4   0   0   0   7.6406241554E-01   1.7220592064E+01   2.1496131648E+01   2.7555013305E+01   2.5000000000E-01   7.254861E-01   0.
3000001    1    5    0    0    0  -1.5348551320E+00  -1.0808230053E+01  -1.9940398678E+01   2.2755067932E+01   1.0000000000E+00     0.000   1.
3000022   2   5   0   0   0   -6.7818455191E+00   -2.3931731847E+01   -2.1680999341E+01   3.2997718865E+01   2.5000000000E-01   1.891454E+00   0.
13    1    7    0    0    0   3.4869674917E-01   6.8307670901E+00   8.5985814667E+00   1.0987611055E+01   1.0500000000E-01     0.000  -1.
-13    1    7    0    0    0   4.1536566637E-01   1.0389824974E+01   1.2897550182E+01   1.6567402250E+01   1.0500000000E-01     0.000   1.
13    1    9    0    0    0  -3.7373045429E+00  -1.2945163115E+01  -1.1757336145E+01   1.7882691954E+01   1.0500000000E-01     0.000  -1.
-13    1    9    0    0    0  -3.0445409762E+00  -1.0986568732E+01  -9.9236631966E+00   1.5115026910E+01   1.0500000000E-01     0.000   1.
</event>
<event>
 13   1  9.2978750E-05  1.2500000E+02  7.5467720E-03  1.2380620E-01
   21   -1    0    0  502  501   0.0000000000E+00   0.0000000000E+00   2.2692731966E+02   2.2692731966E+02   0.0000000000E+00     0.000  -1.
   21   -1    0    0  501  502   0.0000000000E+00   0.0000000000E+00  -1.7213661211E+01   1.7213661211E+01   0.0000000000E+00     0.000  -1.
   25    2    1    2    0    0   0.0000000000E+00   0.0000000000E+00   2.0971365845E+02   2.4414098087E+02   1.2500000000E+02  1.050E-08  -1.
3000002    2    3    0    0    0  -6.0203601875E+01   2.8304931612E+00   1.3060292388E+02   1.4418602254E+02   1.0000000000E+01  2.092E-10  -1.
3000002    2    3    0    0    0   6.0203601875E+01  -2.8304931612E+00   7.9110734572E+01   9.9954958331E+01   1.0000000000E+01  9.824E-11  -1.
3000001    1    4    0    0    0  -4.5079271597E+01   1.0624222347E+00   1.0673422269E+02   1.1587261869E+02   1.0000000000E+00     0.000  -1.
3000022   2   4   0   0   0   -1.5124330278E+01   1.7680709265E+00   2.3868701186E+01   2.8313403849E+01   2.5000000000E-01   2.688888E+00   0.
3000001    1    5    0    0    0   1.8267709790E+01  -3.5371105473E+00   3.0592912292E+01   3.5821036480E+01   1.0000000000E+00     0.000   1.
3000022   2   5   0   0   0   4.1935892085E+01   7.0661738608E-01   4.8517822281E+01   6.4133921851E+01   2.5000000000E-01   1.754639E+00   0.
13    1    7    0    0    0  -1.0852066528E+01   1.2753825687E+00   1.7051890192E+01   2.0252701862E+01   1.0500000000E-01     0.000  -1.
-13    1    7    0    0    0  -4.2722637507E+00   4.9268835780E-01   6.8168109945E+00   8.0607019861E+00   1.0500000000E-01     0.000   1.
13    1    9    0    0    0   1.5675561112E+01   2.2280076907E-01   1.8201877391E+01   2.4022743847E+01   1.0500000000E-01     0.000   1.
-13    1    9    0    0    0   2.6260330973E+01   4.8381661701E-01   3.0315944889E+01   4.0111178004E+01   1.0500000000E-01     0.000  -1.
</event>
<event>
 13   1  9.2978750E-05  1.2500000E+02  7.5467720E-03  1.2380620E-01
   21   -1    0    0  502  501   0.0000000000E+00   0.0000000000E+00   8.2644979809E+00   8.2644979809E+00   0.0000000000E+00     0.000  -1.
   21   -1    0    0  501  502   0.0000000000E+00   0.0000000000E+00  -4.7265423853E+02   4.7265423853E+02   0.0000000000E+00     0.000  -1.
   25    2    1    2    0    0   0.0000000000E+00   0.0000000000E+00  -4.6438974055E+02   4.8091873651E+02   1.2500000000E+02  2.229E-10  -1.
3000002    2    3    0    0    0   3.4034330781E+01  -3.5003517334E+01  -3.7731026302E+02   3.8058719958E+02   1.0000000000E+01  8.694E-10   1.
3000002    2    3    0    0    0  -3.4034330781E+01   3.5003517334E+01  -8.7079477526E+01   1.0033153693E+02   1.0000000000E+01  9.064E-10   1.
3000001    1    4    0    0    0   2.9706210738E+01  -3.1509699979E+01  -3.5298365929E+02   3.5563152823E+02   1.0000000000E+00     0.000   1.
3000022   2   4   0   0   0   4.3281200426E+00   -3.4938173546E+00   -2.4326603738E+01   2.4955671344E+01   2.5000000000E-01   2.833724E+00   0.
3000001    1    5    0    0    0  -4.2517560942E+00   5.4995229504E+00  -6.8573374170E+00   9.8155620836E+00   1.0000000000E+00     0.000   1.
3000022   2   5   0   0   0   -2.9782574687E+01   2.9503994384E+01   -8.0222140109E+01   9.0515974851E+01   2.5000000000E-01   5.940183E+00   0.
13    1    7    0    0    0   1.5596362471E+00  -1.3106734897E+00  -9.1082266409E+00   9.3338709956E+00   1.0500000000E-01     0.000   1.
-13    1    7    0    0    0   2.7684837955E+00  -2.1831438649E+00  -1.5218377097E+01   1.5621800348E+01   1.0500000000E-01     0.000  -1.
13    1    9    0    0    0  -1.6953637461E+01   1.6884577523E+01  -4.5752939249E+01   5.1631940272E+01   1.0500000000E-01     0.000   1.
-13    1    9    0    0    0  -1.2828937226E+01   1.2619416861E+01  -3.4469200860E+01   3.8884034579E+01   1.0500000000E-01     0.000  -1.
</event>
<event>
 13   1  9.2978750E-05  1.2500000E+02  7.5467720E-03  1.2380620E-01
   21   -1    0    0  502  501   0.0000000000E+00   0.0000000000E+00   2.3895256605E+01   2.3895256605E+01   0.0000000000E+00     0.000  -1.
   21   -1    0    0  501  502   0.0000000000E+00   0.0000000000E+00  -1.6347386699E+02   1.6347386699E+02   0.0000000000E+00     0.000  -1.
   25    2    1    2    0    0   0.0000000000E+00   0.0000000000E+00  -1.3957861039E+02   1.8736912360E+02   1.2500000000E+02  6.076E-08  -1.
3000002    2    3    0    0    0  -1.5567970059E+00   1.4136766736E+01   2.0197553319E+01   2.6649820839E+01   1.0000000000E+01  2.028E-10   1.
3000002    2    3    0    0    0   1.5567970059E+00  -1.4136766736E+01  -1.5977616371E+02   1.6071930276E+02   1.0000000000E+01  2.681E-11   1.
3000001    1    4    0    0    0   2.0480016683E+00   7.8973943052E-01   3.1617027314E-01   2.4326863429E+00   1.0000000000E+00     0.000  -1.
3000022   2   4   0   0   0   -3.6047986742E+00   1.3347027306E+01   1.9881383046E+01   2.4217134496E+01   2.5000000000E-01   6.573574E+00   0.
3000001    1    5    0    0    0  -2.2151303767E+00  -1.6555793441E+00  -1.1473807094E+01   1.1844661024E+01   1.0000000000E+00     0.000  -1.
3000022   2   5   0   0   0   3.7719273826E+00   -1.2481187392E+01   -1.4830235662E+02   1.4887464174E+02   2.5000000000E-01   4.069895E+00   0.
13    1    7    0    0    0  -1.8069795651E+00   6.7372521160E+00   9.9140375130E+00   1.2122495866E+01   1.0500000000E-01     0.000   1.
-13    1    7    0    0    0  -1.7978191091E+00   6.6097751896E+00   9.9673455325E+00   1.2094638629E+01   1.0500000000E-01     0.000  -1.
13    1    9    0    0    0   1.3904285131E+00  -4.7058840995E+00  -5.5222399499E+01   5.5440085390E+01   1.0500000000E-01     0.000  -1.
-13    1    9    0    0    0   2.3814988696E+00  -7.7753032925E+00  -9.3079957116E+01   9.3434556348E+01   1.0500000000E-01     0.000   1.
</event>
<event>
 13   1  9.2978750E-05  1.2500000E+02  7.5467720E-03  1.2380620E-01
   21   -1    0    0  502  501   0.0000000000E+00   0.0000000000E+00   1.3236208263E+01   1.3236208263E+01   0.0000000000E+00     0.000  -1.
   21   -1    0    0  501  502   0.0000000000E+00   0.0000000000E+00  -2.9511850541E+02   2.9511850541E+02   0.0000000000E+00     0.000  -1.
   25    2    1    2    0    0   0.0000000000E+00   0.0000000000E+00  -2.8188229715E+02   3.0835471368E+02   1.2500000000E+02  2.834E-08  -1.
3000002    2    3    0    0    0   3.0398506488E+01  -3.2916844399E+01  -2.4556130801E+02   2.4981581982E+02   1.0000000000E+01  1.231E-10   1.
3000002    2    3    0    0    0  -3.0398506488E+01   3.2916844399E+01  -3.6320989138E+01   5.8538893856E+01   1.0000000000E+01  1.573E-09   1.
3000001    1    4    0    0    0   6.4363613669E+00  -4.1294982484E+00  -6.1529863670E+01   6.2011318537E+01   1.0000000000E+00     0.000   1.
3000022   2   4   0   0   0   2.3962145121E+01   -2.8787346151E+01   -1.8403144434E+02   1.8780450129E+02   2.5000000000E-01   6.574613E-01   -1.
3000001    1    5    0    0    0  -4.9571201343E+00   1.0290015790E+01  -1.2637399481E+01   1.7063450139E+01   1.0000000000E+00     0.000   1.
3000022   2   5   0   0   0   -2.5441386354E+01   2.2626828609E+01   -2.3683589657E+01   4.1475443717E+01   2.5000000000E-01   4.058315E+00   0.
13    1    7    0    0    0   1.4520987510E+01  -1.7455364300E+01  -1.1124943046E+02   1.1354292414E+02   1.0500000000E-01     0.000  -1.
-13    1    7    0    0    0   9.4411576112E+00  -1.1331981851E+01  -7.2782013885E+01   7.4261577144E+01   1.0500000000E-01     0.000  -1.
13    1    9    0    0    0  -7.7096019537E+00   6.8781926355E+00  -7.1336359039E+00   1.2555766899E+01   1.0500000000E-01     0.000  -1.
-13    1    9    0    0    0  -1.7731784400E+01   1.5748635973E+01  -1.6549953753E+01   2.8919676818E+01   1.0500000000E-01     0.000   1.
</event>
<event>
 13   1  9.2978750E-05  1.2500000E+02  7.5467720E-03  1.2380620E-01
   21   -1    0    0  502  501   0.0000000000E+00   0.0000000000E+00   1.2219884555E+02   1.2219884555E+02   0.0000000000E+00     0.000   1.
   21   -1    0    0  501  502   0.0000000000E+00   0.0000000000E+00  -3.1966341272E+01   3.1966341272E+01   0.0000000000E+00     0.000   1.
   25    2    1    2    0    0   0.0000000000E+00   0.0000000000E+00   9.0232504283E+01   1.5416518683E+02   1.2500000000E+02  4.959E-09  -1.
3000002    2    3    0    0    0  -6.1485041840E+01  -5.0699994419E+00   4.5568959961E+01   7.7347562187E+01   1.0000000000E+01  4.300E-10   1.
3000002    2    3    0    0    0   6.1485041840E+01   5.0699994419E+00   4.4663544322E+01   7.6817624643E+01   1.0000000000E+01  1.286E-09   1.
3000001    1    4    0    0    0  -4.6637563766E+00  -3.8822458504E-01   7.8913127481E-01   4.8501618569E+00   1.0000000000E+00     0.000  -1.
3000022   2   4   0   0   0   -5.6821285463E+01   -4.6817748569E+00   4.4779828686E+01   7.2497400330E+01   2.5000000000E-01   2.830542E+00   0.
3000001    1    5    0    0    0   3.2529222016E+01   4.4711486605E+00   1.8043212530E+01   3.7479313944E+01   1.0000000000E+00     0.000  -1.
3000022   2   5   0   0   0   2.8955819823E+01   5.9885078139E-01   2.6620331792E+01   3.9338310698E+01   2.5000000000E-01   1.255268E+00   0.
13    1    7    0    0    0  -2.9069795622E+01  -2.3977923683E+00   2.2995638106E+01   3.7143139645E+01   1.0500000000E-01     0.000   1.
-13    1    7    0    0    0  -2.7751489841E+01  -2.2839824886E+00   2.1784190580E+01   3.5354260686E+01   1.0500000000E-01     0.000  -1.
13    1    9    0    0    0   1.1513705406E+01   2.5004921743E-01   1.0669233872E+01   1.5699411238E+01   1.0500000000E-01     0.000   1.
-13    1    9    0    0    0   1.7442114417E+01   3.4880156396E-01   1.5951097919E+01   2.3638899461E+01   1.0500000000E-01     0.000  -1.
</event>
<event>
 13   1  9.2978750E-05  1.2500000E+02  7.5467720E-03  1.2380620E-01
   21   -1    0    0  502  501   0.0000000000E+00   0.0000000000E+00   1.2756911516E+02   1.2756911516E+02   0.0000000000E+00     0.000  -1.
   21   -1    0    0  501  502   0.0000000000E+00   0.0000000000E+00  -3.0620656066E+01   3.0620656066E+01   0.0000000000E+00     0.000  -1.
   25    2    1    2    0    0   0.0000000000E+00   0.0000000000E+00   9.6948459098E+01   1.5818977123E+02   1.2500000000E+02  9.912E-09  -1.
3000002    2    3    0    0    0  -1.5348489303E+01   5.9710338241E+01   5.1401212846E+01   8.0888721703E+01   1.0000000000E+01  3.906E-10   1.
3000002    2    3    0    0    0   1.5348489303E+01  -5.9710338241E+01   4.5547246252E+01   7.7301049527E+01   1.0000000000E+01  4.840E-10   1.
3000001    1    4    0    0    0  -6.2173516441E+00   1.0718778985E+01   7.8339488934E+00   1.4694163455E+01   1.0000000000E+00     0.000  -1.
3000022   2   4   0   0   0   -9.1311376589E+00   4.8991559256E+01   4.3567263952E+01   6.6194558248E+01   2.5000000000E-01   2.141449E+01   0.
3000001    1    5    0    0    0   3.5086871330E-01  -1.6278920829E+01   1.4688979552E+01   2.1952049847E+01   1.0000000000E+00     0.000  -1.
3000022   2   5   0   0   0   1.4997620590E+01   -4.3431417413E+01   3.0858266700E+01   5.5348999680E+01   2.5000000000E-01   5.640845E-02   0.
13    1    7    0    0    0  -4.9259557927E+00   2.6437281068E+01   2.3598992462E+01   3.5778741467E+01   1.0500000000E-01     0.000  -1.
-13    1    7    0    0    0  -4.2051818662E+00   2.2554278189E+01   1.9968271490E+01   3.0415816781E+01   1.0500000000E-01     0.000   1.
13    1    9    0    0    0   3.8701747059E+00  -1.1150300625E+01   7.9553151916E+00   1.4233956620E+01   1.0500000000E-01     0.000  -1.
-13    1    9    0    0    0   1.1127445884E+01  -3.2281116788E+01   2.2902951509E+01   4.1115043060E+01   1.0500000000E-01     0.000   1.
</event>
<event>
 13   1  9.2978750E-05  1.2500000E+02  7.5467720E-03  1.2380620E-01
   21   -1    0    0  502  501   0.0000000000E+00   0.0000000000E+00   6.5581992071E+00   6.5581992071E+00   0.0000000000E+00     0.000   1.
   21   -1    0    0  501  502   0.0000000000E+00   0.0000000000E+00  -5.9562844565E+02   5.9562844565E+02   0.0000000000E+00     0.000   1.
   25    2    1    2    0    0   0.0000000000E+00   0.0000000000E+00  -5.8907024645E+02   6.0218664486E+02   1.2500000000E+02  4.402E-09  -1.
3000002    2    3    0    0    0   4.8352587358E+01   3.7694314776E+01  -3.2770800758E+02   3.3354365877E+02   1.0000000000E+01  1.058E-11  -1.
3000002    2    3    0    0    0  -4.8352587358E+01  -3.7694314776E+01  -2.6136223887E+02   2.6864298609E+02   1.0000000000E+01  8.904E-11  -1.
3000001    1    4    0    0    0   2.3374746066E+01   2.4427055093E+01  -1.8169218761E+02   1.8481371922E+02   1.0000000000E+00     0.000  -1.
3000022   2   4   0   0   0   2.4977841292E+01   1.3267259683E+01   -1.4601581997E+02   1.4872993955E+02   2.5000000000E-01   3.352936E-01   0.
3000001    1    5    0    0    0  -2.0427272922E+01  -1.6679871131E+01  -9.1904719374E+01   9.5618873781E+01   1.0000000000E+00     0.000  -1.
3000022   2   5   0   0   0   -2.7925314435E+01   -2.1014443645E+01   -1.6945751950E+02   1.7302411231E+02   2.5000000000E-01   9.013528E+00   0.
13    1    7    0    0    0   1.0479663979E+01   5.6041329612E+00  -6.1062136262E+01   6.2207918895E+01   1.0500000000E-01     0.000   1.
-13    1    7    0    0    0   1.4498177312E+01   7.6631267215E+00  -8.4953683710E+01   8.6522020651E+01   1.0500000000E-01     0.000  -1.
13    1    9    0    0    0  -9.9140419670E+00  -7.4663685220E+00  -6.0461969451E+01   6.1722732132E+01   1.0500000000E-01     0.000   1.
-13    1    9    0    0    0  -1.8011272468E+01  -1.3548075123E+01  -1.0899555005E+02   1.1130138018E+02   1.0500000000E-01     0.000  -1.
</event>
<event>
 13   1  9.2978750E-05  1.2500000E+02  7.5467720E-03  1.2380620E-01
   21   -1    0    0  502  501   0.0000000000E+00   0.0000000000E+00   3.6661306053E+01   3.6661306053E+01   0.0000000000E+00     0.000  -1.
   21   -1    0    0  501  502   0.0000000000E+00   0.0000000000E+00  -1.0654966832E+02   1.0654966832E+02   0.0000000000E+00     0.000  -1.
   25    2    1    2    0    0   0.0000000000E+00   0.0000000000E+00  -6.9888362263E+01   1.4321097437E+02   1.2500000000E+02  6.265E-08  -1.
3000002    2    3    0    0    0   5.3861178919E+01  -5.2669095147E+00  -1.0062269119E+00   5.5043432151E+01   1.0000000000E+01  7.034E-10  -1.
3000002    2    3    0    0    0  -5.3861178919E+01   5.2669095147E+00  -6.8882135351E+01   8.8167542219E+01   1.0000000000E+01  2.326E-09  -1.
3000001    1    4    0    0    0   2.5201489482E+01  -5.7844364921E+00  -4.1473343410E+00   2.6206395398E+01   1.0000000000E+00     0.000  -1.
3000022   2   4   0   0   0   2.8659689437E+01   5.1752697732E-01   3.1411074291E+00   2.8837036753E+01   2.5000000000E-01   1.477826E+01   0.
3000001    1    5    0    0    0  -1.1631294920E+01   3.7137070847E+00  -1.0751125393E+01   1.6299243512E+01   1.0000000000E+00     0.000   1.
3000022   2   5   0   0   0   -4.2229883999E+01   1.5532024300E+00   -5.8131009958E+01   7.1868298707E+01   2.5000000000E-01   2.691774E+00   0.
13    1    7    0    0    0   1.4629529900E+01   2.2219702283E-01   1.6568451780E+00   1.4725103652E+01   1.0500000000E-01     0.000   1.
-13    1    7    0    0    0   1.4030159537E+01   2.9532995449E-01   1.4842622511E+00   1.4111933101E+01   1.0500000000E-01     0.000  -1.
13    1    9    0    0    0  -1.1860595433E+01   4.4802166560E-01  -1.6262610717E+01   2.0133503912E+01   1.0500000000E-01     0.000  -1.
-13    1    9    0    0    0  -3.0369288566E+01   1.1051807644E+00  -4.1868399240E+01   5.1734794795E+01   1.0500000000E-01     0.000   1.
</event>
<event>
 13   1  9.2978750E-05  1.2500000E+02  7.5467720E-03  1.2380620E-01
   21   -1    0    0  502  501   0.0000000000E+00   0.0000000000E+00   3.4188798201E+01   3.4188798201E+01   0.0000000000E+00     0.000  -1.
   21   -1    0    0  501  502   0.0000000000E+00   0.0000000000E+00  -1.1425525919E+02   1.1425525919E+02   0.0000000000E+00     0.000  -1.
   25    2    1    2    0    0   0.0000000000E+00   0.0000000000E+00  -8.0066460992E+01   1.4844405739E+02   1.2500000000E+02  1.226E-08  -1.
3000002    2    3    0    0    0   3.2136641519E+01   3.0125694854E+01   1.1264757914E+01   4.6553367112E+01   1.0000000000E+01  5.630E-10   1.
3000002    2    3    0    0    0  -3.2136641519E+01  -3.0125694854E+01  -9.1331218906E+01   1.0189069028E+02   1.0000000000E+01  3.082E-12   1.
3000001    1    4    0    0    0   1.0880889535E+01   6.4674002985E+00  -3.2684194462E-01   1.2701490044E+01   1.0000000000E+00     0.000  -1.
3000022   2   4   0   0   0   2.1255751984E+01   2.3658294556E+01   1.1591599858E+01   3.3851877067E+01   2.5000000000E-01   1.178516E+01   0.
3000001    1    5    0    0    0  -1.6569618123E+00  -5.9228110713E+00  -1.3617090880E+01   1.4974991735E+01   1.0000000000E+00     0.000   1.
3000022   2   5   0   0   0   -3.0479679707E+01   -2.4202883783E+01   -7.7714128026E+01   8.6915698543E+01   2.5000000000E-01   8.790566E+00   0.
13    1    7    0    0    0   1.5004098501E+01   1.6638716058E+01   8.1842795817E+00   2.3852951624E+01   1.0500000000E-01     0.000  -1.
-13    1    7    0    0    0   6.2516534830E+00   7.0195784974E+00   3.4073202766E+00   9.9989254433E+00   1.0500000000E-01     0.000   1.
13    1    9    0    0    0  -7.6344649715E+00  -6.0622183388E+00  -1.9525804980E+01   2.1824381588E+01   1.0500000000E-01     0.000   1.
-13    1    9    0    0    0  -2.2845214735E+01  -1.8140665444E+01  -5.8188323046E+01   6.5091316955E+01   1.0500000000E-01     0.000  -1.
</event>
<event>
 13   1  9.2978750E-05  1.2500000E+02  7.5467720E-03  1.2380620E-01
   21   -1    0    0  502  501   0.0000000000E+00   0.0000000000E+00   3.7234868700E+01   3.7234868700E+01   0.0000000000E+00     0.000   1.
   21   -1    0    0  501  502   0.0000000000E+00   0.0000000000E+00  -1.0490838659E+02   1.0490838659E+02   0.0000000000E+00     0.000   1.
   25    2    1    2    0    0   0.0000000000E+00   0.0000000000E+00  -6.7673517886E+01   1.4214325529E+02   1.2500000000E+02  6.977E-08  -1.
3000002    2    3    0    0    0   6.9076725206E+00  -1.9425483023E+01  -9.9959475831E+01   1.0255224102E+02   1.0000000000E+01  5.193E-11   1.
3000002    2    3    0    0    0  -6.9076725206E+00   1.9425483023E+01   3.2285957945E+01   3.9591014268E+01   1.0000000000E+01  1.105E-09   1.
3000001    1    4    0    0    0   8.4721210282E+00  -1.8603243228E+01  -8.2453510421E+01   8.4955511146E+01   1.0000000000E+00     0.000   1.
3000022   2   4   0   0   0   -1.5644485077E+00   -8.2223979500E-01   -1.7505965410E+01   1.7596729877E+01   2.5000000000E-01   8.082678E+00   0.
3000001    1    5    0    0    0  -5.7043337278E-01   8.9804653874E+00   6.7873571941E+00   1.1315580873E+01   1.0000000000E+00     0.000   1.
3000022   2   5   0   0   0   -6.3372391478E+00   1.0445017635E+01   2.5498600751E+01   2.8275433395E+01   2.5000000000E-01   1.088530E+01   0.
13    1    7    0    0    0  -4.1058352577E-01  -1.8300201111E-01  -4.5930398989E+00   4.6161790564E+00   1.0500000000E-01     0.000   1.
-13    1    7    0    0    0  -1.1538649819E+00  -6.3923778389E-01  -1.2912925511E+01   1.2980550820E+01   1.0500000000E-01     0.000  -1.
13    1    9    0    0    0  -1.4847445753E+00   2.4525261788E+00   6.0186818282E+00   6.6674513167E+00   1.0500000000E-01     0.000   1.
-13    1    9    0    0    0  -4.8524945724E+00   7.9924914566E+00   1.9479918923E+01   2.1607982078E+01   1.0500000000E-01     0.000  -1.
</event>
<event>
 13   1  9.2978750E-05  1.2500000E+02  7.5467720E-03  1.2380620E-01
   21   -1    0    0  502  501   0.0000000000E+00   0.0000000000E+00   8.8334216139E+01   8.8334216139E+01   0.0000000000E+00     0.000   1.
   21   -1    0    0  501  502   0.0000000000E+00   0.0000000000E+00  -4.4221256165E+01   4.4221256165E+01   0.0000000000E+00     0.000   1.
   25    2    1    2    0    0   0.0000000000E+00   0.0000000000E+00   4.4112959974E+01   1.3255547230E+02   1.2500000000E+02  9.480E-08  -1.
3000002    2    3    0    0    0  -1.2388431117E+01   6.0234507289E+01   2.7314068462E+01   6.8027402052E+01   1.0000000000E+01  1.397E-10   1.
3000002    2    3    0    0    0   1.2388431117E+01  -6.0234507289E+01   1.6798891512E+01   6.4528070248E+01   1.0000000000E+01  7.155E-11   1.
3000001    1    4    0    0    0  -1.3822666409E+01   5.6750042321E+01   2.6579521314E+01   6.4180249013E+01   1.0000000000E+00     0.000   1.
3000022   2   4   0   0   0   1.4342352921E+00   3.4844649689E+00   7.3454714805E-01   3.8471530389E+00   2.5000000000E-01   5.037012E+00   0.
3000001    1    5    0    0    0  -1.6330383254E-01  -1.8654830925E+01   7.3655862597E+00   2.0081863607E+01   1.0000000000E+00     0.000  -1.
3000022   2   5   0   0   0   1.2551734950E+01   -4.1579676365E+01   9.4333052519E+00   4.4446206642E+01   2.5000000000E-01   3.666719E+00   0.
13    1    7    0    0    0   6.1563245284E-01   1.6249741146E+00   3.8522826656E-01   1.7829666310E+00   1.0500000000E-01     0.000  -1.
-13    1    7    0    0    0   8.1860283927E-01   1.8594908543E+00   3.4931888149E-01   2.0641864079E+00   1.0500000000E-01     0.000   1.
13    1    9    0    0    0   6.5526449358E+00  -2.1865794088E+01   5.0083410356E+00   2.3369737091E+01   1.0500000000E-01     0.000   1.
-13    1    9    0    0    0   5.9990900140E+00  -1.9713882277E+01   4.4249642163E+00   2.1076469551E+01   1.0500000000E-01     0.000  -1.
</event>
<event>
 13   1  9.2978750E-05  1.2500000E+02  7.5467720E-03  1.2380620E-01
   21   -1    0    0  502  501   0.0000000000E+00   0.0000000000E+00   8.0065464008E+01   8.0065464008E+01   0.0000000000E+00     0.000  -1.
   21   -1    0    0  501  502   0.0000000000E+00   0.0000000000E+00  -4.8788201610E+01   4.8788201610E+01   0.0000000000E+00     0.000  -1.
   25    2    1    2    0    0   0.0000000000E+00   0.0000000000E+00   3.1277262399E+01   1.2885366562E+02   1.2500000000E+02  2.120E-08  -1.
3000002    2    3    0    0    0   5.9532157274E+01  -1.3308797061E+00  -9.9580542266E-01   6.0389076984E+01   1.0000000000E+01  1.385E-10  -1.
3000002    2    3    0    0    0  -5.9532157274E+01   1.3308797061E+00   3.2273067822E+01   6.8464588636E+01   1.0000000000E+01  1.172E-10  -1.
3000001    1    4    0    0    0   4.3269830213E+01   2.7031229480E+00   1.7870384760E+00   4.3402518208E+01   1.0000000000E+00     0.000  -1.
3000022   2   4   0   0   0   1.6262327062E+01   -4.0340026541E+00   -2.7828438987E+00   1.6986558775E+01   2.5000000000E-01   1.013548E+01   0.
3000001    1    5    0    0    0  -5.2366992577E+00   2.6864392568E+00   2.0699932808E+00   6.3186111748E+00   1.0000000000E+00     0.000   1.
3000022   2   5   0   0   0   -5.4295458016E+01   -1.3555595507E+00   3.0203074541E+01   6.2145977461E+01   2.5000000000E-01   1.134698E+01   0.
13    1    7    0    0    0   5.3722278311E+00  -1.2990491322E+00  -8.7591524483E-01   5.5970182270E+00   1.0500000000E-01     0.000  -1.
-13    1    7    0    0    0   1.0890099230E+01  -2.7349535218E+00  -1.9069286538E+00   1.1389540548E+01   1.0500000000E-01     0.000   1.
13    1    9    0    0    0  -2.0218446130E+01  -5.5181530686E-01   1.1205326150E+01   2.3122725254E+01   1.0500000000E-01     0.000  -1.
-13    1    9    0    0    0  -3.4077011887E+01  -8.0374424385E-01   1.8997748391E+01   3.9023252208E+01   1.0500000000E-01     0.000   1.
</event>
<event>
 13   1  9.2978750E-05  1.2500000E+02  7.5467720E-03  1.2380620E-01
   21   -1    0    0  502  501   0.0000000000E+00   0.0000000000E+00   1.2166953265E+01   1.2166953265E+01   0.0000000000E+00     0.000   1.
   21   -1    0    0  501  502   0.0000000000E+00   0.0000000000E+00  -3.2105408107E+02   3.2105408107E+02   0.0000000000E+00     0.000   1.
   25    2    1    2    0    0   0.0000000000E+00   0.0000000000E+00  -3.0888712781E+02   3.3322103434E+02   1.2500000000E+02  1.294E-08  -1.
3000002    2    3    0    0    0   5.2952239130E+01   2.1278554185E+01  -2.1693485285E+02   2.2453829713E+02   1.0000000000E+01  2.029E-09   1.
3000002    2    3    0    0    0  -5.2952239130E+01  -2.1278554185E+01  -9.1952274961E+01   1.0868273721E+02   1.0000000000E+01  2.861E-10   1.
3000001    1    4    0    0    0   1.9036798564E+01   2.8463423710E+00  -7.7195276890E+01   7.9565143993E+01   1.0000000000E+00     0.000   1.
3000022   2   4   0   0   0   3.3915440566E+01   1.8432211814E+01   -1.3973957596E+02   1.4497315314E+02   2.5000000000E-01   9.791366E-02   0.
3000001    1    5    0    0    0  -4.3684426854E+00   8.0114931581E-01  -7.9897967236E+00   9.1957589903E+00   1.0000000000E+00     0.000  -1.
3000022   2   5   0   0   0   -4.8583796445E+01   -2.2079703501E+01   -8.3962478237E+01   9.9486978221E+01   2.5000000000E-01   2.548281E+00   0.
13    1    7    0    0    0   1.1317763653E+01   6.1865074690E+00  -4.6858178809E+01   4.8601076069E+01   1.0500000000E-01     0.000  -1.
-13    1    7    0    0    0   2.2597676913E+01   1.2245704345E+01  -9.2881397149E+01   9.6372077067E+01   1.0500000000E-01     0.000   1.
13    1    9    0    0    0  -2.3750423064E+01  -1.0804467472E+01  -4.1177468001E+01   4.8748476992E+01   1.0500000000E-01     0.000   1.
-13    1    9    0    0    0  -2.4833373380E+01  -1.1275236029E+01  -4.2785010236E+01   5.0738501228E+01   1.0500000000E-01     0.000  -1.
</event>
<event>
 13   1  9.2978750E-05  1.2500000E+02  7.5467720E-03  1.2380620E-01
   21   -1    0    0  502  501   0.0000000000E+00   0.0000000000E+00   1.2094452556E+02   1.2094452556E+02   0.0000000000E+00     0.000   1.
   21   -1    0    0  501  502   0.0000000000E+00   0.0000000000E+00  -3.2297865339E+01   3.2297865339E+01   0.0000000000E+00     0.000   1.
   25    2    1    2    0    0   0.0000000000E+00   0.0000000000E+00   8.8646660219E+01   1.5324239090E+02   1.2500000000E+02  9.367E-10  -1.
3000002    2    3    0    0    0   4.2295702470E+01   4.4822353176E+01   4.0795647195E+01   7.4580524413E+01   1.0000000000E+01  3.240E-12  -1.
3000002    2    3    0    0    0  -4.2295702470E+01  -4.4822353176E+01   4.7851013024E+01   7.8661866487E+01   1.0000000000E+01  1.670E-10  -1.
3000001    1    4    0    0    0   1.4243821056E+01   2.1874454130E+01   1.8812449053E+01   3.2191402907E+01   1.0000000000E+00     0.000   1.
3000022   2   4   0   0   0   2.8051881414E+01   2.2947899046E+01   2.1983198142E+01   4.2389121506E+01   2.5000000000E-01   4.863034E+00   0.
3000001    1    5    0    0    0  -3.4277695265E+01  -3.0827373378E+01   3.2682853321E+01   5.6519520904E+01   1.0000000000E+00     0.000  -1.
3000022   2   5   0   0   0   -8.0180072054E+00   -1.3994979798E+01   1.5168159704E+01   2.2142345582E+01   2.5000000000E-01   7.448590E-02   0.
13    1    7    0    0    0   1.9606011105E+01   1.5980969791E+01   1.5356556266E+01   2.9590909284E+01   1.0500000000E-01     0.000   1.
-13    1    7    0    0    0   8.4458703086E+00   6.9669292551E+00   6.6266418764E+00   1.2798212222E+01   1.0500000000E-01     0.000  -1.
13    1    9    0    0    0  -2.8308932339E+00  -5.0515269229E+00   5.4715464958E+00   7.9674793260E+00   1.0500000000E-01     0.000   1.
-13    1    9    0    0    0  -5.1871139715E+00  -8.9434528753E+00   9.6966132078E+00   1.4174866256E+01   1.0500000000E-01     0.000  -1.
</event>
<event>
 13   1  9.2978750E-05  1.2500000E+02  7.5467720E-03  1.2380620E-01
   21   -1    0    0  502  501   0.0000000000E+00   0.0000000000E+00   4.8074697020E+01   4.8074697020E+01   0.0000000000E+00     0.000  -1.
   21   -1    0    0  501  502   0.0000000000E+00   0.0000000000E+00  -8.1253762211E+01   8.1253762211E+01   0.0000000000E+00     0.000  -1.
   25    2    1    2    0    0   0.0000000000E+00   0.0000000000E+00  -3.3179065191E+01   1.2932845923E+02   1.2500000000E+02  3.363E-08  -1.
3000002    2    3    0    0    0  -1.8044399588E+01   5.0982506494E+00  -7.7401154718E+01   8.0265380257E+01   1.0000000000E+01  2.012E-10  -1.
3000002    2    3    0    0    0   1.8044399588E+01  -5.0982506494E+00   4.4222089527E+01   4.9063078973E+01   1.0000000000E+01  1.275E-10  -1.
3000001    1    4    0    0    0  -9.3552879202E+00  -2.4475323174E+00  -3.3797665877E+01   3.5168082763E+01   1.0000000000E+00     0.000  -1.
3000022   2   4   0   0   0   -8.6891116677E+00   7.5457829667E+00   -4.3603488841E+01   4.5097297494E+01   2.5000000000E-01   7.752471E+00   0.
3000001    1    5    0    0    0   1.5444613367E+01  -2.1680252231E+00   2.5295961751E+01   2.9734190695E+01   1.0000000000E+00     0.000  -1.
3000022   2   5   0   0   0   2.5997862213E+00   -2.9302254262E+00   1.8926127776E+01   1.9328888278E+01   2.5000000000E-01   2.711570E-01   0.
13    1    7    0    0    0  -3.6224935346E+00   3.2134662674E+00  -1.8504681207E+01   1.9128070379E+01   1.0500000000E-01     0.000  -1.
-13    1    7    0    0    0  -5.0666181330E+00   4.3323166993E+00  -2.5098807634E+01   2.5969227114E+01   1.0500000000E-01     0.000   1.
13    1    9    0    0    0   9.1713149076E-01  -1.1187182861E+00   6.9020184820E+00   7.0527685983E+00   1.0500000000E-01     0.000   1.
-13    1    9    0    0    0   1.6826547306E+00  -1.8115071402E+00   1.2024109294E+01   1.2276119679E+01   1.0500000000E-01     0.000  -1.
</event>
<event>
 13   1  9.2978750E-05  1.2500000E+02  7.5467720E-03  1.2380620E-01
   21   -1    0    0  502  501   0.0000000000E+00   0.0000000000E+00   1.8177143967E+01   1.8177143967E+01   0.0000000000E+00     0.000  -1.
   21   -1    0    0  501  502   0.0000000000E+00   0.0000000000E+00  -2.1489899662E+02   2.1489899662E+02   0.0000000000E+00     0.000  -1.
   25    2    1    2    0    0   0.0000000000E+00   0.0000000000E+00  -1.9672185266E+02   2.3307614059E+02   1.2500000000E+02  1.425E-08  -1.
3000002    2    3    0    0    0  -3.2811503203E+01   4.1754551047E+01  -3.9804696607E+01   6.7115208020E+01   1.0000000000E+01  4.336E-10  -1.
3000002    2    3    0    0    0   3.2811503203E+01  -4.1754551047E+01  -1.5691715605E+02   1.6596093257E+02   1.0000000000E+01  6.814E-11  -1.
3000001    1    4    0    0    0  -1.0486764356E+01   1.3312686688E+01  -7.2444531325E+00   1.8457571744E+01   1.0000000000E+00     0.000   1.
3000022   2   4   0   0   0   -2.2324738848E+01   2.8441864359E+01   -3.2560243474E+01   4.8657636276E+01   2.5000000000E-01   4.206871E+00   0.
3000001    1    5    0    0    0   8.4384199834E+00  -1.3400213387E+01  -3.4779847505E+01   3.8228398386E+01   1.0000000000E+00     0.000   1.
3000022   2   5   0   0   0   2.4373083220E+01   -2.8354337660E+01   -1.2213730855E+02   1.2773253418E+02   2.5000000000E-01   5.520031E+00   0.
13    1    7    0    0    0  -1.0640717245E+01   1.3448371778E+01  -1.5428469456E+01   2.3067992147E+01   1.0500000000E-01     0.000  -1.
-13    1    7    0    0    0  -1.1684021603E+01   1.4993492582E+01  -1.7131774018E+01   2.5589644129E+01   1.0500000000E-01     0.000   1.
13    1    9    0    0    0   1.1264569144E+01  -1.3181958431E+01  -5.6488541993E+01   5.9089939479E+01   1.0500000000E-01     0.000   1.
-13    1    9    0    0    0   1.3108514075E+01  -1.5172379229E+01  -6.5648766555E+01   6.8642594705E+01   1.0500000000E-01     0.000  -1.
</event>
<event>
 13   1  9.2978750E-05  1.2500000E+02  7.5467720E-03  1.2380620E-01
   21   -1    0    0  502  501   0.0000000000E+00   0.0000000000E+00   5.7226090953E+00   5.7226090953E+00   0.0000000000E+00     0.000  -1.
   21   -1    0    0  501  502   0.0000000000E+00   0.0000000000E+00  -6.8259948128E+02   6.8259948128E+02   0.0000000000E+00     0.000  -1.
   25    2    1    2    0    0   0.0000000000E+00   0.0000000000E+00  -6.7687687219E+02   6.8832209038E+02   1.2500000000E+02  2.044E-09  -1.
3000002    2    3    0    0    0  -3.3575174264E+01   2.2904608802E+01  -5.9402526598E+02   5.9549805210E+02   1.0000000000E+01  1.943E-10   1.
3000002    2    3    0    0    0   3.3575174264E+01  -2.2904608802E+01  -8.2851606212E+01   9.2824038283E+01   1.0000000000E+01  1.273E-09   1.
3000001    1    4    0    0    0  -2.1709994077E+01   1.0307642015E+01  -2.9924016584E+02   3.0020534335E+02   1.0000000000E+00     0.000  -1.
3000022   2   4   0   0   0   -1.1865180188E+01   1.2596966787E+01   -2.9478510014E+02   2.9529270874E+02   2.5000000000E-01   1.018630E+00   0.
3000001    1    5    0    0    0   3.3754871504E+01  -2.2251894757E+01  -8.2738672040E+01   9.2093572097E+01   1.0000000000E+00     0.000   1.
3000022   2   5   0   0   0   -1.7969723969E-01   -6.5271404490E-01   -1.1293417185E-01   7.3046618644E-01   2.5000000000E-01   1.132005E+00   0.
13    1    7    0    0    0  -5.3003240440E+00   5.5526156341E+00  -1.3148325601E+02   1.3170718512E+02   1.0500000000E-01     0.000   1.
-13    1    7    0    0    0  -6.5648561436E+00   7.0443511527E+00  -1.6330184413E+02   1.6358552362E+02   1.0500000000E-01     0.000  -1.
13    1    9    0    0    0  -1.5643435028E-01  -3.1814038251E-01  -7.1573021003E-02   3.7660683248E-01   1.0500000000E-01     0.000   1.
-13    1    9    0    0    0  -2.3262889402E-02  -3.3457366239E-01  -4.1361150851E-02   3.5385935396E-01   1.0500000000E-01     0.000  -1.
</event>
<event>
 13   1  9.2978750E-05  1.2500000E+02  7.5467720E-03  1.2380620E-01
   21   -1    0    0  502  501   0.0000000000E+00   0.0000000000E+00   1.0459792382E+02   1.0459792382E+02   0.0000000000E+00     0.000  -1.
   21   -1    0    0  501  502   0.0000000000E+00   0.0000000000E+00  -3.7345387530E+01   3.7345387530E+01   0.0000000000E+00     0.000  -1.
   25    2    1    2    0    0   0.0000000000E+00   0.0000000000E+00   6.7252536294E+01   1.4194331135E+02   1.2500000000E+02  2.817E-09  -1.
3000002    2    3    0    0    0   4.7142643453E+01   2.0722542327E+01   7.2208077521E+01   8.9251661337E+01   1.0000000000E+01  1.514E-10  -1.
3000002    2    3    0    0    0  -4.7142643453E+01  -2.0722542327E+01  -4.9555412268E+00   5.2691650013E+01   1.0000000000E+01  6.245E-11  -1.
3000001    1    4    0    0    0   1.9345714418E+01   1.3262034052E+01   3.6339539264E+01   4.3263152075E+01   1.0000000000E+00     0.000  -1.
3000022   2   4   0   0   0   2.7796929035E+01   7.4605082748E+00   3.5868538257E+01   4.5988509262E+01   2.5000000000E-01   1.536080E+01   0.
3000001    1    5    0    0    0  -1.9593679689E+00  -5.5983820665E-01   1.6050507799E+00   2.7800592910E+00   1.0000000000E+00     0.000   1.
3000022   2   5   0   0   0   -4.5183275484E+01   -2.0162704120E+01   -6.5605920067E+00   4.9911590722E+01   2.5000000000E-01   8.938237E+00   0.
13    1    7    0    0    0   1.4482316154E+01   3.8178841436E+00   1.8647517838E+01   2.3917664331E+01   1.0500000000E-01     0.000   1.
-13    1    7    0    0    0   1.3314612881E+01   3.6426241312E+00   1.7221020419E+01   2.2070844931E+01   1.0500000000E-01     0.000  -1.
13    1    9    0    0    0  -1.6493469988E+01  -7.3567967421E+00  -2.3354209458E+00   1.8210497702E+01   1.0500000000E-01     0.000   1.
-13    1    9    0    0    0  -2.8689805496E+01  -1.2805907378E+01  -4.2251710609E+00   3.1701093020E+01   1.0500000000E-01     0.000  -1.
</event>
<event>
 13   1  9.2978750E-05  1.2500000E+02  7.5467720E-03  1.2380620E-01
   21   -1    0    0  502  501   0.0000000000E+00   0.0000000000E+00   4.7378861275E+01   4.7378861275E+01   0.0000000000E+00     0.000  -1.
   21   -1    0    0  501  502   0.0000000000E+00   0.0000000000E+00  -8.2447106049E+01   8.2447106049E+01   0.0000000000E+00     0.000  -1.
   25    2    1    2    0    0   0.0000000000E+00   0.0000000000E+00  -3.5068244775E+01   1.2982596732E+02   1.2500000000E+02  2.287E-09  -1.
3000002    2    3    0    0    0   5.6159997513E+01  -1.8296431239E+01  -3.6041904887E+01   6.9912256612E+01   1.0000000000E+01  4.045E-11   1.
3000002    2    3    0    0    0  -5.6159997513E+01   1.8296431239E+01   9.7366011232E-01   5.9913710708E+01   1.0000000000E+01  8.749E-11   1.
3000001    1    4    0    0    0   3.8597346721E+01  -8.2456452050E+00  -2.6412778359E+01   4.7501375763E+01   1.0000000000E+00     0.000   1.
3000022   2   4   0   0   0   1.7562650791E+01   -1.0050786034E+01   -9.6291265285E+00   2.2410880849E+01   2.5000000000E-01   9.132511E+00   -1.
3000001    1    5    0    0    0  -3.6384700880E+01   7.7022566561E+00   3.3372918387E+00   3.7353831564E+01   1.0000000000E+00     0.000   1.
3000022   2   5   0   0   0   -1.9775296633E+01   1.0594174583E+01   -2.3636317264E+00   2.2559879143E+01   2.5000000000E-01   7.142453E+00   0.
13    1    7    0    0    0   8.3975059794E+00  -4.8428421941E+00  -4.6787748990E+00   1.0764440847E+01   1.0500000000E-01     0.000   1.
-13    1    7    0    0    0   9.1651448120E+00  -5.2079438403E+00  -4.9503516296E+00   1.1646440002E+01   1.0500000000E-01     0.000  -1.
13    1    9    0    0    0  -1.2694142903E+01   6.7474747248E+00  -1.5489385942E+00   1.4459595948E+01   1.0500000000E-01     0.000  -1.
-13    1    9    0    0    0  -7.0811537299E+00   3.8466998586E+00  -8.1469313220E-01   8.1002831955E+00   1.0500000000E-01     0.000   1.
</event>
<event>
 13   1  9.2978750E-05  1.2500000E+02  7.5467720E-03  1.2380620E-01
   21   -1    0    0  502  501   0.0000000000E+00   0.0000000000E+00   2.9142633511E+01   2.9142633511E+01   0.0000000000E+00     0.000  -1.
   21   -1    0    0  501  502   0.0000000000E+00   0.0000000000E+00  -1.3403901876E+02   1.3403901876E+02   0.0000000000E+00     0.000  -1.
   25    2    1    2    0    0   0.0000000000E+00   0.0000000000E+00  -1.0489638525E+02   1.6318165228E+02   1.2500000000E+02  2.473E-08  -1.
3000002    2    3    0    0    0  -2.4271731829E+01  -5.4273374115E+01  -3.0936561641E+01   6.7762725373E+01   1.0000000000E+01  7.916E-10   1.
3000002    2    3    0    0    0   2.4271731829E+01   5.4273374115E+01  -7.3959823609E+01   9.5418926907E+01   1.0000000000E+01  1.091E-09   1.
3000001    1    4    0    0    0  -2.2014387622E+01  -5.2414401903E+01  -2.7252122842E+01   6.3052208436E+01   1.0000000000E+00     0.000   1.
3000022   2   4   0   0   0   -2.2573442062E+00   -1.8589722124E+00   -3.6844387995E+00   4.7105169376E+00   2.5000000000E-01   4.323482E+00   0.
3000001    1    5    0    0    0   1.1701666744E+01   1.8106232517E+01  -3.2183914727E+01   3.8750084228E+01   1.0000000000E+00     0.000   1.
3000022   2   5   0   0   0   1.2570065084E+01   3.6167141599E+01   -4.1775908882E+01   5.6668842679E+01   2.5000000000E-01   6.943151E-01   0.
13    1    7    0    0    0  -1.4317491237E+00  -1.2437228447E+00  -2.3409123758E+00   3.0145725764E+00   1.0500000000E-01     0.000   1.
-13    1    7    0    0    0  -8.2559508249E-01  -6.1524936767E-01  -1.3435264238E+00   1.6959443611E+00   1.0500000000E-01     0.000  -1.
13    1    9    0    0    0   8.6496371190E+00   2.4968898700E+01  -2.8770967288E+01   3.9064583810E+01   1.0500000000E-01     0.000  -1.
-13    1    9    0    0    0   3.9204279652E+00   1.1198242899E+01  -1.3004941594E+01   1.7604258869E+01   1.0500000000E-01     0.000   1.
</event>
<event>
 13   1  9.2978750E-05  1.2500000E+02  7.5467720E-03  1.2380620E-01
   21   -1    0    0  502  501   0.0000000000E+00   0.0000000000E+00   1.0326504447E+02   1.0326504447E+02   0.0000000000E+00     0.000  -1.
   21   -1    0    0  501  502   0.0000000000E+00   0.0000000000E+00  -3.7827417980E+01   3.7827417980E+01   0.0000000000E+00     0.000  -1.
   25    2    1    2    0    0   0.0000000000E+00   0.0000000000E+00   6.5437626492E+01   1.4109246245E+02   1.2500000000E+02  5.894E-10  -1.
3000002    2    3    0    0    0  -3.3686048116E+01   2.1665913950E+01   8.5686519736E+01   9.5112256463E+01   1.0000000000E+01  1.253E-09  -1.
3000002    2    3    0    0    0   3.3686048116E+01  -2.1665913950E+01  -2.0248893244E+01   4.5980205987E+01   1.0000000000E+01  5.683E-10  -1.
3000001    1    4    0    0    0  -3.3574279591E+01   2.1208732348E+01   8.5815488330E+01   9.4563949871E+01   1.0000000000E+00     0.000  -1.
3000022   2   4   0   0   0   -1.1176852477E-01   4.5718160206E-01   -1.2896859397E-01   5.4830659181E-01   2.5000000000E-01   5.789038E+00   0.
3000001    1    5    0    0    0   2.6799039055E+01  -1.9107129414E+01  -2.0196822860E+01   3.8628778680E+01   1.0000000000E+00     0.000  -1.
3000022   2   5   0   0   0   6.8870090616E+00   -2.5587845368E+00   -5.2070383730E-02   7.3514273066E+00   2.5000000000E-01   3.334839E+00   0.
13    1    7    0    0    0  -2.8396538837E-02   2.3173267487E-01   4.8037797173E-05   2.5599101220E-01   1.0500000000E-01     0.000  -1.
-13    1    7    0    0    0  -8.3371985936E-02   2.2544892720E-01  -1.2901663177E-01   2.9231557961E-01   1.0500000000E-01     0.000   1.
13    1    9    0    0    0   2.4409906189E+00  -9.5247925492E-01   2.0054751992E-02   2.6224185642E+00   1.0500000000E-01     0.000  -1.
-13    1    9    0    0    0   4.4460184427E+00  -1.6063052818E+00  -7.2125135722E-02   4.7290087424E+00   1.0500000000E-01     0.000   1.
</event>
<event>
 13   1  9.2978750E-05  1.2500000E+02  7.5467720E-03  1.2380620E-01
   21   -1    0    0  502  501   0.0000000000E+00   0.0000000000E+00   3.1095211430E+01   3.1095211430E+01   0.0000000000E+00     0.000  -1.
   21   -1    0    0  501  502   0.0000000000E+00   0.0000000000E+00  -1.2562223636E+02   1.2562223636E+02   0.0000000000E+00     0.000  -1.
   25    2    1    2    0    0   0.0000000000E+00   0.0000000000E+00  -9.4527024931E+01   1.5671744779E+02   1.2500000000E+02  1.789E-08  -1.
3000002    2    3    0    0    0   4.4744444534E+01   4.0697079162E+01  -6.2512430652E+01   8.7556390715E+01   1.0000000000E+01  7.697E-10   1.
3000002    2    3    0    0    0  -4.4744444534E+01  -4.0697079162E+01  -3.2014594279E+01   6.9161057075E+01   1.0000000000E+01  6.811E-10   1.
3000001    1    4    0    0    0   5.0310169491E+00   9.4614583426E+00  -1.1763894673E+01   1.5944263651E+01   1.0000000000E+00     0.000  -1.
3000022   2   4   0   0   0   3.9713427585E+01   3.1235620819E+01   -5.0748535979E+01   7.1612127063E+01   2.5000000000E-01   5.486083E+00   0.
3000001    1    5    0    0    0  -2.8945446961E+01  -2.7159571874E+01  -1.5603456680E+01   4.2660861507E+01   1.0000000000E+00     0.000   1.
3000022   2   5   0   0   0   -1.5798997573E+01   -1.3537507288E+01   -1.6411137599E+01   2.6500195568E+01   2.5000000000E-01   2.590333E+00   0.
13    1    7    0    0    0   1.3210705401E+01   1.0324561427E+01  -1.6823882090E+01   2.3752333347E+01   1.0500000000E-01     0.000   1.
-13    1    7    0    0    0   2.6502722184E+01   2.0911059392E+01  -3.3924653889E+01   4.7859793716E+01   1.0500000000E-01     0.000  -1.
13    1    9    0    0    0  -7.1209416474E+00  -6.0661351551E+00  -7.3011212204E+00   1.1866895202E+01   1.0500000000E-01     0.000   1.
-13    1    9    0    0    0  -8.6780559252E+00  -7.4713721329E+00  -9.1100163787E+00   1.4633300366E+01   1.0500000000E-01     0.000  -1.
</event>
<event>
 13   1  9.2978750E-05  1.2500000E+02  7.5467720E-03  1.2380620E-01
   21   -1    0    0  502  501   0.0000000000E+00   0.0000000000E+00   6.8251999121E+01   6.8251999121E+01   0.0000000000E+00     0.000  -1.
   21   -1    0    0  501  502   0.0000000000E+00   0.0000000000E+00  -5.7232755821E+01   5.7232755821E+01   0.0000000000E+00     0.000  -1.
   25    2    1    2    0    0   0.0000000000E+00   0.0000000000E+00   1.1019243299E+01   1.2548475494E+02   1.2500000000E+02  8.003E-09  -1.
3000002    2    3    0    0    0   2.1307880938E+01   5.7674188302E+01   3.9947680080E-01   6.2293638263E+01   1.0000000000E+01  6.497E-11   1.
3000002    2    3    0    0    0  -2.1307880938E+01  -5.7674188302E+01   1.0619766498E+01   6.3191116677E+01   1.0000000000E+01  2.674E-10   1.
3000001    1    4    0    0    0   1.4352661431E+01   2.4640514232E+01   2.4074594832E-01   2.8534396618E+01   1.0000000000E+00     0.000  -1.
3000022   2   4   0   0   0   6.9552195071E+00   3.3033674070E+01   1.5873085248E-01   3.3759241645E+01   2.5000000000E-01   1.567702E+01   0.
3000001    1    5    0    0    0  -1.9963010356E+01  -4.5278747393E+01   1.1050772718E+01   5.0712979853E+01   1.0000000000E+00     0.000   1.
3000022   2   5   0   0   0   -1.3448705813E+00   -1.2395440910E+01   -4.3100621962E-01   1.2478136824E+01   2.5000000000E-01   5.267366E-01   0.
13    1    7    0    0    0   4.5907979499E+00   2.1739928634E+01   1.5797508685E-01   2.2220168856E+01   1.0500000000E-01     0.000   1.
-13    1    7    0    0    0   2.3644215572E+00   1.1293745436E+01   7.5576562733E-04   1.1539072789E+01   1.0500000000E-01     0.000  -1.
13    1    9    0    0    0  -5.5959008207E-01  -4.6611484132E+00  -1.3436746297E-01   4.6977148918E+00   1.0500000000E-01     0.000   1.
-13    1    9    0    0    0  -7.8528049920E-01  -7.7342924964E+00  -2.9663875666E-01   7.7804219317E+00   1.0500000000E-01     0.000  -1.
</event>
<event>
 13   1  9.2978750E-05  1.2500000E+02  7.5467720E-03  1.2380620E-01
   21   -1    0    0  502  501   0.0000000000E+00   0.0000000000E+00   7.8258897070E+00   7.8258897070E+00   0.0000000000E+00     0.000   1.
   21   -1    0    0  501  502   0.0000000000E+00   0.0000000000E+00  -4.9914452493E+02   4.9914452493E+02   0.0000000000E+00     0.000   1.
   25    2    1    2    0    0   0.0000000000E+00   0.0000000000E+00  -4.9131863523E+02   5.0697041464E+02   1.2500000000E+02  5.787E-09  -1.
3000002    2    3    0    0    0  -6.6848813346E+00  -5.3291675243E+01  -1.2253769151E+02   1.3416473504E+02   1.0000000000E+01  6.884E-10   1.
3000002    2    3    0    0    0   6.6848813346E+00   5.3291675243E+01  -3.6878094372E+02   3.7280567960E+02   1.0000000000E+01  2.126E-10   1.
3000001    1    4    0    0    0  -4.5848850989E+00  -4.1270933081E+01  -8.3453184867E+01   9.3218802573E+01   1.0000000000E+00     0.000   1.
3000022   2   4   0   0   0   -2.0999962357E+00   -1.2020742161E+01   -3.9084506643E+01   4.0945932470E+01   2.5000000000E-01   4.974650E+00   0.
3000001    1    5    0    0    0   6.7477784821E+00   3.1587801938E+01  -1.9253235118E+02   1.9522558233E+02   1.0000000000E+00     0.000   1.
3000022   2   5   0   0   0   -6.2897147487E-02   2.1703873304E+01   -1.7624859254E+02   1.7758009727E+02   2.5000000000E-01   1.166400E+00   0.
13    1    7    0    0    0  -1.3921908381E+00  -7.6282613672E+00  -2.4821282522E+01   2.6004531487E+01   1.0500000000E-01     0.000  -1.
-13    1    7    0    0    0  -7.0780539762E-01  -4.3924807941E+00  -1.4263224121E+01   1.4941400983E+01   1.0500000000E-01     0.000   1.
13    1    9    0    0    0   4.9138384044E-03   1.3633774471E+01  -1.1103771537E+02   1.1187164560E+02   1.0500000000E-01     0.000   1.
-13    1    9    0    0    0  -6.7810985892E-02   8.0700988335E+00  -6.5210877171E+01   6.5708451663E+01   1.0500000000E-01     0.000  -1.
</event>
<event>
 13   1  9.2978750E-05  1.2500000E+02  7.5467720E-03  1.2380620E-01
   21   -1    0    0  502  501   0.0000000000E+00   0.0000000000E+00   5.6107030699E+00   5.6107030699E+00   0.0000000000E+00     0.000   1.
   21   -1    0    0  501  502   0.0000000000E+00   0.0000000000E+00  -6.9621399517E+02   6.9621399517E+02   0.0000000000E+00     0.000   1.
   25    2    1    2    0    0   0.0000000000E+00   0.0000000000E+00  -6.9060329210E+02   7.0182469824E+02   1.2500000000E+02  5.868E-08  -1.
3000002    2    3    0    0    0   5.0174186303E+01  -3.5291006461E+01  -3.0833648469E+02   3.1453822009E+02   1.0000000000E+01  5.379E-10  -1.
3000002    2    3    0    0    0  -5.0174186303E+01   3.5291006461E+01  -3.8226680741E+02   3.8728647815E+02   1.0000000000E+01  1.411E-09  -1.
3000001    1    4    0    0    0   3.6001830679E+01  -2.4090330959E+01  -2.3842502002E+02   2.4233028294E+02   1.0000000000E+00     0.000  -1.
3000022   2   4   0   0   0   1.4172355624E+01   -1.1200675502E+01   -6.9911464661E+01   7.2207937145E+01   2.5000000000E-01   1.482116E+00   0.
3000001    1    5    0    0    0  -4.1150094005E+00   6.0805332060E-01  -1.9281533927E+01   1.9750457761E+01   1.0000000000E+00     0.000  -1.
3000022   2   5   0   0   0   -4.6059176903E+01   3.4682953140E+01   -3.6298527349E+02   3.6753602039E+02   2.5000000000E-01   1.817559E+00   0.
13    1    7    0    0    0   9.8781062094E+00  -7.8642217826E+00  -4.8823163710E+01   5.0429508288E+01   1.0500000000E-01     0.000   1.
-13    1    7    0    0    0   4.2942494151E+00  -3.3364537190E+00  -2.1088300951E+01   2.1778428857E+01   1.0500000000E-01     0.000  -1.
13    1    9    0    0    0  -2.2656703653E+01   1.7019263261E+01  -1.7877428757E+02   1.8100618349E+02   1.0500000000E-01     0.000  -1.
-13    1    9    0    0    0  -2.3402473250E+01   1.7663689879E+01  -1.8421098592E+02   1.8652983690E+02   1.0500000000E-01     0.000   1.
</event>
<event>
 13   1  9.2978750E-05  1.2500000E+02  7.5467720E-03  1.2380620E-01
   21   -1    0    0  502  501   0.0000000000E+00   0.0000000000E+00   1.0470615922E+01   1.0470615922E+01   0.0000000000E+00     0.000   1.
   21   -1    0    0  501  502   0.0000000000E+00   0.0000000000E+00  -3.7306783373E+02   3.7306783373E+02   0.0000000000E+00     0.000   1.
   25    2    1    2    0    0   0.0000000000E+00   0.0000000000E+00  -3.6259721781E+02   3.8353844965E+02   1.2500000000E+02  2.406E-08  -1.
3000002    2    3    0    0    0  -4.9415252199E+01   3.6932958875E+01  -1.7951107825E+02   1.9007929349E+02   1.0000000000E+01  4.439E-12   1.
3000002    2    3    0    0    0   4.9415252199E+01  -3.6932958875E+01  -1.8308613956E+02   1.9345915616E+02   1.0000000000E+01  2.718E-10   1.
3000001    1    4    0    0    0  -3.0368045994E+01   2.4182476996E+01  -1.2645350933E+02   1.3228189761E+02   1.0000000000E+00     0.000   1.
3000022   2   4   0   0   0   -1.9047206205E+01   1.2750481879E+01   -5.3057568910E+01   5.7797395885E+01   2.5000000000E-01   9.217796E+00   0.
3000001    1    5    0    0    0   4.7521330773E+01  -3.4782135230E+01  -1.7915129439E+02   1.8858488829E+02   1.0000000000E+00     0.000   1.
3000022   2   5   0   0   0   1.8939214257E+00   -2.1508236451E+00   -3.9348451771E+00   4.8742678719E+00   2.5000000000E-01   5.785292E+00   0.
13    1    7    0    0    0  -8.5577233048E+00   5.8069418580E+00  -2.3901940042E+01   2.6043597384E+01   1.0500000000E-01     0.000   1.
-13    1    7    0    0    0  -1.0489482901E+01   6.9435400210E+00  -2.9155628868E+01   3.1753798501E+01   1.0500000000E-01     0.000  -1.
13    1    9    0    0    0   7.7126259026E-01  -9.7474726147E-01  -1.7186633380E+00   2.1236305885E+00   1.0500000000E-01     0.000  -1.
-13    1    9    0    0    0   1.1226588355E+00  -1.1760763836E+00  -2.2161818391E+00   2.7506372834E+00   1.0500000000E-01     0.000   1.
</event>
<event>
 13   1  9.2978750E-05  1.2500000E+02  7.5467720E-03  1.2380620E-01
   21   -1    0    0  502  501   0.0000000000E+00   0.0000000000E+00   1.4958234552E+01   1.4958234552E+01   0.0000000000E+00     0.000   1.
   21   -1    0    0  501  502   0.0000000000E+00   0.0000000000E+00  -2.6114378582E+02   2.6114378582E+02   0.0000000000E+00     0.000   1.
   25    2    1    2    0    0   0.0000000000E+00   0.0000000000E+00  -2.4618555127E+02   2.7610202037E+02   1.2500000000E+02  4.393E-09  -1.
3000002    2    3    0    0    0  -3.0593953763E+00  -2.4915165227E+01  -2.4757528666E+02   2.4904547361E+02   1.0000000000E+01  4.625E-10  -1.
3000002    2    3    0    0    0   3.0593953763E+00   2.4915165227E+01   1.3897353905E+00   2.7056546765E+01   1.0000000000E+01  5.646E-10  -1.
3000001    1    4    0    0    0   3.7212559119E-01   3.3765133417E-01  -4.4724844048E+00   4.6103798791E+00   1.0000000000E+00     0.000   1.
3000022   2   4   0   0   0   -3.4315209675E+00   -2.5252816561E+01   -2.4310280226E+02   2.4443509373E+02   2.5000000000E-01   1.134647E+01   0.
3000001    1    5    0    0    0   4.6945069191E+00   1.6881406057E+01   4.7666930182E+00   1.8186303308E+01   1.0000000000E+00     0.000  -1.
3000022   2   5   0   0   0   -1.6351115428E+00   8.0337591705E+00   -3.3769576277E+00   8.8702434570E+00   2.5000000000E-01   3.935332E+00   0.
13    1    7    0    0    0  -1.1367350186E+00  -8.0919209970E+00  -7.7613948892E+01   7.8042984564E+01   1.0500000000E-01     0.000   1.
-13    1    7    0    0    0  -2.2947859489E+00  -1.7160895564E+01  -1.6548885336E+02   1.6639210916E+02   1.0500000000E-01     0.000  -1.
13    1    9    0    0    0  -1.1115918354E+00   5.1757373389E+00  -2.1744556992E+00   5.7239126476E+00   1.0500000000E-01     0.000   1.
-13    1    9    0    0    0  -5.2351970739E-01   2.8580218316E+00  -1.2025019285E+00   3.1463308094E+00   1.0500000000E-01     0.000  -1.
</event>
<event>
 13   1  9.2978750E-05  1.2500000E+02  7.5467720E-03  1.2380620E-01
   21   -1    0    0  502  501   0.0000000000E+00   0.0000000000E+00   3.3502440064E+01   3.3502440064E+01   0.0000000000E+00     0.000   1.
   21   -1    0    0  501  502   0.0000000000E+00   0.0000000000E+00  -1.1659598503E+02   1.1659598503E+02   0.0000000000E+00     0.000   1.
   25    2    1    2    0    0   0.0000000000E+00   0.0000000000E+00  -8.3093544962E+01   1.5009842509E+02   1.2500000000E+02  6.223E-09  -1.
3000002    2    3    0    0    0   1.4587927689E+01   1.0923037482E+01   2.9229735493E+01   3.5867782466E+01   1.0000000000E+01  5.982E-10   1.
3000002    2    3    0    0    0  -1.4587927689E+01  -1.0923037482E+01  -1.1232328045E+02   1.1423064262E+02   1.0000000000E+01  2.356E-10   1.
3000001    1    4    0    0    0   3.1960654913E-03  -1.1312470981E+00   4.3824969544E+00   4.6353003966E+00   1.0000000000E+00     0.000  -1.
3000022   2   4   0   0   0   1.4584731624E+01   1.2054284580E+01   2.4847238538E+01   3.1232482070E+01   2.5000000000E-01   8.834247E+00   0.
3000001    1    5    0    0    0  -1.1650723895E+00   1.4881091922E+00  -6.5879053716E+00   6.9262081853E+00   1.0000000000E+00     0.000  -1.
3000022   2   5   0   0   0   -1.3422855300E+01   -1.2411146674E+01   -1.0573537508E+02   1.0730443444E+02   2.5000000000E-01   1.232141E+01   0.
13    1    7    0    0    0   1.0379845572E+01   8.6298414994E+00   1.7701047356E+01   2.2261030096E+01   1.0500000000E-01     0.000   1.
-13    1    7    0    0    0   4.2048860515E+00   3.4244430803E+00   7.1461911821E+00   8.9714519743E+00   1.0500000000E-01     0.000  -1.
13    1    9    0    0    0  -4.4657290531E+00  -4.0958988208E+00  -3.5327659419E+01   3.5843739595E+01   1.0500000000E-01     0.000  -1.
-13    1    9    0    0    0  -8.9571262466E+00  -8.3152478532E+00  -7.0407715664E+01   7.1460694844E+01   1.0500000000E-01     0.000   1.
</event>
<event>
 13   1  9.2978750E-05  1.2500000E+02  7.5467720E-03  1.2380620E-01
   21   -1    0    0  502  501   0.0000000000E+00   0.0000000000E+00   1.5841220409E+02   1.5841220409E+02   0.0000000000E+00     0.000   1.
   21   -1    0    0  501  502   0.0000000000E+00   0.0000000000E+00  -2.4658769332E+01   2.4658769332E+01   0.0000000000E+00     0.000   1.
   25    2    1    2    0    0   0.0000000000E+00   0.0000000000E+00   1.3375343476E+02   1.8307097342E+02   1.2500000000E+02  1.808E-08  -1.
3000002    2    3    0    0    0  -2.3917388566E+01   1.1548930843E+01   1.4843132579E+02   1.5112007727E+02   1.0000000000E+01  1.254E-10  -1.
3000002    2    3    0    0    0   2.3917388566E+01  -1.1548930843E+01  -1.4677891030E+01   3.1950896146E+01   1.0000000000E+01  1.007E-10  -1.
3000001    1    4    0    0    0  -2.4344368342E+01   1.2439545266E+01   1.4357383438E+02   1.4615688993E+02   1.0000000000E+00     0.000  -1.
3000022   2   4   0   0   0   4.2697977586E-01   -8.9061442251E-01   4.8574914131E+00   4.9631873435E+00   2.5000000000E-01   1.195997E+00   0.
3000001    1    5    0    0    0   1.8632069439E+01  -6.3869130020E+00  -1.4634902920E+01   2.4558645173E+01   1.0000000000E+00     0.000  -1.
3000022   2   5   0   0   0   5.2853191272E+00   -5.1620178414E+00   -4.2988110658E-02   7.3922509731E+00   2.5000000000E-01   6.949043E+00   0.
13    1    7    0    0    0   1.4657905422E-01  -4.4087168366E-01   2.1133813469E+00   2.1663930802E+00   1.0500000000E-01     0.000  -1.
-13    1    7    0    0    0   2.8040072164E-01  -4.4974273886E-01   2.7441100662E+00   2.7967942633E+00   1.0500000000E-01     0.000   1.
13    1    9    0    0    0   3.7445479892E+00  -3.6080120711E+00  -5.7967963697E-02   5.2013244499E+00   1.0500000000E-01     0.000   1.
-13    1    9    0    0    0   1.5407711380E+00  -1.5540057704E+00   1.4979853040E-02   2.1909265232E+00   1.0500000000E-01     0.000  -1.
</event>
<event>
 13   1  9.2978750E-05  1.2500000E+02  7.5467720E-03  1.2380620E-01
   21   -1    0    0  502  501   0.0000000000E+00   0.0000000000E+00   4.0762871274E+01   4.0762871274E+01   0.0000000000E+00     0.000  -1.
   21   -1    0    0  501  502   0.0000000000E+00   0.0000000000E+00  -9.5828627324E+01   9.5828627324E+01   0.0000000000E+00     0.000  -1.
   25    2    1    2    0    0   0.0000000000E+00   0.0000000000E+00  -5.5065756050E+01   1.3659149860E+02   1.2500000000E+02  3.896E-09  -1.
3000002    2    3    0    0    0   4.0693569097E+01  -3.9870697007E+01  -5.3405738514E+01   7.8726183394E+01   1.0000000000E+01  1.783E-11   1.
3000002    2    3    0    0    0  -4.0693569097E+01   3.9870697007E+01  -1.6600175365E+00   5.7865315206E+01   1.0000000000E+01  1.319E-09   1.
3000001    1    4    0    0    0   1.3571545955E+01  -1.3263323059E+01  -2.4390572904E+01   3.0919292436E+01   1.0000000000E+00     0.000   1.
3000022   2   4   0   0   0   2.7122023142E+01   -2.6607373948E+01   -2.9015165609E+01   4.7806890958E+01   2.5000000000E-01   1.253821E+00   0.
3000001    1    5    0    0    0  -1.0503276424E+00   4.4402906403E+00  -2.3515861756E-01   4.6770363161E+00   1.0000000000E+00     0.000  -1.
3000022   2   5   0   0   0   -3.9643241455E+01   3.5430406366E+01   -1.4248589189E+00   5.3188278890E+01   2.5000000000E-01   4.623914E+01   0.
13    1    7    0    0    0   1.5105829924E+01  -1.4762906967E+01  -1.6196522951E+01   2.6617060328E+01   1.0500000000E-01     0.000   1.
-13    1    7    0    0    0   1.2016193218E+01  -1.1844466981E+01  -1.2818642658E+01   2.1189830629E+01   1.0500000000E-01     0.000  -1.
13    1    9    0    0    0  -2.4900154213E+01   2.2174363330E+01  -9.0130151457E-01   3.3354811322E+01   1.0500000000E-01     0.000   1.
-13    1    9    0    0    0  -1.4743087242E+01   1.3256043036E+01  -5.2355740437E-01   1.9833467567E+01   1.0500000000E-01     0.000  -1.
</event>
<event>
 13   1  9.2978750E-05  1.2500000E+02  7.5467720E-03  1.2380620E-01
   21   -1    0    0  502  501   0.0000000000E+00   0.0000000000E+00   1.7927257616E+02   1.7927257616E+02   0.0000000000E+00     0.000   1.
   21   -1    0    0  501  502   0.0000000000E+00   0.0000000000E+00  -2.1789445345E+01   2.1789445345E+01   0.0000000000E+00     0.000   1.
   25    2    1    2    0    0   0.0000000000E+00   0.0000000000E+00   1.5748313081E+02   2.0106202150E+02   1.2500000000E+02  1.038E-08  -1.
3000002    2    3    0    0    0   3.5210576394E+01  -4.8332584016E+01   5.4324899091E+01   8.1406498689E+01   1.0000000000E+01  1.394E-10  -1.
3000002    2    3    0    0    0  -3.5210576394E+01   4.8332584016E+01   1.0315823172E+02   1.1965552281E+02   1.0000000000E+01  9.212E-10  -1.
3000001    1    4    0    0    0   1.3900109169E+01  -2.5257751903E+01   2.1532956182E+01   3.5997711983E+01   1.0000000000E+00     0.000  -1.
3000022   2   4   0   0   0   2.1310467226E+01   -2.3074832113E+01   3.2791942909E+01   4.5408786706E+01   2.5000000000E-01   3.389206E+00   0.
3000001    1    5    0    0    0  -2.1712137698E+00   1.3018737849E+00   2.2731153482E+00   3.5462794549E+00   1.0000000000E+00     0.000   1.
3000022   2   5   0   0   0   -3.3039362624E+01   4.7030710231E+01   1.0088511637E+02   1.1610924336E+02   2.5000000000E-01   4.632326E+00   0.
13    1    7    0    0    0   1.3226316033E+01  -1.4237122167E+01   2.0318184991E+01   2.8115311660E+01   1.0500000000E-01     0.000   1.
-13    1    7    0    0    0   8.0841511923E+00  -8.8377099459E+00   1.2473757918E+01   1.7293475047E+01   1.0500000000E-01     0.000  -1.
13    1    9    0    0    0  -2.3713986358E+01   3.3821426311E+01   7.2532575968E+01   8.3469920500E+01   1.0500000000E-01     0.000  -1.
-13    1    9    0    0    0  -9.3253762658E+00   1.3209283920E+01   2.8352540403E+01   3.2639322856E+01   1.0500000000E-01     0.000   1.
</event>
<event>
 13   1  9.2978750E-05  1.2500000E+02  7.5467720E-03  1.2380620E-01
   21   -1    0    0  502  501   0.0000000000E+00   0.0000000000E+00   6.9065084452E+02   6.9065084452E+02   0.0000000000E+00     0.000   1.
   21   -1    0    0  501  502   0.0000000000E+00   0.0000000000E+00  -5.6558969427E+00   5.6558969427E+00   0.0000000000E+00     0.000   1.
   25    2    1    2    0    0   0.0000000000E+00   0.0000000000E+00   6.8499494757E+02   6.9630674146E+02   1.2500000000E+02  5.848E-08  -1.
3000002    2    3    0    0    0  -6.3603931944E-01   7.7141083676E+00   1.5448280466E+00   1.2739643151E+01   1.0000000000E+01  2.811E-10   1.
3000002    2    3    0    0    0   6.3603931944E-01  -7.7141083676E+00   6.8345011952E+02   6.8356709831E+02   1.0000000000E+01  4.290E-10   1.
3000001    1    4    0    0    0  -3.0397622259E+00   1.2463874186E+00  -2.9280155412E+00   4.5129714155E+00   1.0000000000E+00     0.000   1.
3000022   2   4   0   0   0   2.4037229065E+00   6.4677209490E+00   4.4728435877E+00   8.2266717356E+00   2.5000000000E-01   2.030760E+01   0.
3000001    1    5    0    0    0   3.3742158957E+00  -8.6132660452E+00   4.3110304946E+02   4.3120344727E+02   1.0000000000E+00     0.000  -1.
3000022   2   5   0   0   0   -2.7381765762E+00   8.9915767765E-01   2.5234707006E+02   2.5236365104E+02   2.5000000000E-01   4.018796E+00   0.
13    1    7    0    0    0   7.2548547242E-01   2.0172029182E+00   1.4418844753E+00   2.5856319583E+00   1.0500000000E-01     0.000   1.
-13    1    7    0    0    0   1.6782374341E+00   4.4505180308E+00   3.0309591124E+00   5.6410397773E+00   1.0500000000E-01     0.000  -1.
13    1    9    0    0    0  -9.4078508897E-01   2.5689126838E-01   8.3584290789E+01   8.3590045827E+01   1.0500000000E-01     0.000   1.
-13    1    9    0    0    0  -1.7973914873E+00   6.4226640927E-01   1.6876277927E+02   1.6877360521E+02   1.0500000000E-01     0.000  -1.
</event>
<event>
 13   1  9.2978750E-05  1.2500000E+02  7.5467720E-03  1.2380620E-01
   21   -1    0    0  502  501   0.0000000000E+00   0.0000000000E+00   5.6249490431E+01   5.6249490431E+01   0.0000000000E+00     0.000  -1.
   21   -1    0    0  501  502   0.0000000000E+00   0.0000000000E+00  -6.9445073547E+01   6.9445073547E+01   0.0000000000E+00     0.000  -1.
   25    2    1    2    0    0   0.0000000000E+00   0.0000000000E+00  -1.3195583116E+01   1.2569456398E+02   1.2500000000E+02  2.691E-09  -1.
3000002    2    3    0    0    0   2.9150515875E+01   5.2838212065E+01   6.3039636404E+00   6.1492838507E+01   1.0000000000E+01  1.841E-10  -1.
3000002    2    3    0    0    0  -2.9150515875E+01  -5.2838212065E+01  -1.9499546756E+01   6.4201725473E+01   1.0000000000E+01  8.927E-10  -1.
3000001    1    4    0    0    0   9.1960758761E+00   2.6490784544E+01   1.5659873903E+00   2.8103056662E+01   1.0000000000E+00     0.000  -1.
3000022   2   4   0   0   0   1.9954439999E+01   2.6347427522E+01   4.7379762502E+00   3.3389781845E+01   2.5000000000E-01   4.239787E+00   0.
3000001    1    5    0    0    0  -1.3559056174E+01  -2.8781484410E+01  -5.5192446254E+00   3.2306097109E+01   1.0000000000E+00     0.000  -1.
3000022   2   5   0   0   0   -1.5591459700E+01   -2.4056727656E+01   -1.3980302131E+01   3.1895628364E+01   2.5000000000E-01   1.976471E+00   0.
13    1    7    0    0    0   1.4637746026E+01   1.9356316734E+01   3.5085396043E+00   2.4520429878E+01   1.0500000000E-01     0.000   1.
-13    1    7    0    0    0   5.3166939729E+00   6.9911107877E+00   1.2294366459E+00   8.8693519669E+00   1.0500000000E-01     0.000  -1.
13    1    9    0    0    0  -4.4091248719E+00  -6.7868247117E+00  -3.9910612313E+00   9.0244648902E+00   1.0500000000E-01     0.000  -1.
-13    1    9    0    0    0  -1.1182334828E+01  -1.7269902944E+01  -9.9892408998E+00   2.2871163474E+01   1.0500000000E-01     0.000   1.
</event>
<event>
 13   1  9.2978750E-05  1.2500000E+02  7.5467720E-03  1.2380620E-01
   21   -1    0    0  502  501   0.0000000000E+00   0.0000000000E+00   6.4324940427E+01   6.4324940427E+01   0.0000000000E+00     0.000   1.
   21   -1    0    0  501  502   0.0000000000E+00   0.0000000000E+00  -6.0726834321E+01   6.0726834321E+01   0.0000000000E+00     0.000   1.
   25    2    1    2    0    0   0.0000000000E+00   0.0000000000E+00   3.5981061058E+00   1.2505177475E+02   1.2500000000E+02  1.151E-07  -1.
3000002    2    3    0    0    0  -4.1403833085E+01  -1.2113464811E+01   4.5922157388E+01   6.3795438418E+01   1.0000000000E+01  7.920E-10   1.
3000002    2    3    0    0    0   4.1403833085E+01   1.2113464811E+01  -4.2324051282E+01   6.1256336332E+01   1.0000000000E+01  1.289E-09   1.
3000001    1    4    0    0    0  -1.1530860087E+01   1.0727679391E+00   1.1643658517E+01   1.6452548406E+01   1.0000000000E+00     0.000   1.
3000022   2   4   0   0   0   -2.9872972997E+01   -1.3186232750E+01   3.4278498871E+01   4.7342890012E+01   2.5000000000E-01   5.432601E+00   0.
3000001    1    5    0    0    0   5.2936097857E+00   1.2555428993E-01  -1.8294986121E+00   5.6907937596E+00   1.0000000000E+00     0.000  -1.
3000022   2   5   0   0   0   3.6110223299E+01   1.1987910521E+01   -4.0494552670E+01   5.5565542572E+01   2.5000000000E-01   2.676944E+00   0.
13    1    7    0    0    0  -1.5998467285E+01  -7.1315342762E+00   1.8418298908E+01   2.5417602095E+01   1.0500000000E-01     0.000  -1.
-13    1    7    0    0    0  -1.3874505712E+01  -6.0546984739E+00   1.5860199964E+01   2.1925287917E+01   1.0500000000E-01     0.000   1.
13    1    9    0    0    0   2.0267547535E+01   6.7943895478E+00  -2.2781108748E+01   3.1239832797E+01   1.0500000000E-01     0.000  -1.
-13    1    9    0    0    0   1.5842675764E+01   5.1935209732E+00  -1.7713443922E+01   2.4325709775E+01   1.0500000000E-01     0.000   1.
</event>
<event>
 13   1  9.2978750E-05  1.2500000E+02  7.5467720E-03  1.2380620E-01
   21   -1    0    0  502  501   0.0000000000E+00   0.0000000000E+00   4.6150069636E+01   4.6150069636E+01   0.0000000000E+00     0.000  -1.
   21   -1    0    0  501  502   0.0000000000E+00   0.0000000000E+00  -8.4642342489E+01   8.4642342489E+01   0.0000000000E+00     0.000  -1.
   25    2    1    2    0    0   0.0000000000E+00   0.0000000000E+00  -3.8492272853E+01   1.3079241212E+02   1.2500000000E+02  3.350E-08  -1.
3000002    2    3    0    0    0   5.3819918521E+01  -3.0129157075E+01  -2.0688515822E+01   6.5820699044E+01   1.0000000000E+01  1.013E-09  -1.
3000002    2    3    0    0    0  -5.3819918521E+01   3.0129157075E+01  -1.7803757031E+01   6.4971713076E+01   1.0000000000E+01  1.587E-09  -1.
3000001    1    4    0    0    0   1.6411992680E+01  -8.9089718892E+00  -1.6079857713E+00   1.8769893503E+01   1.0000000000E+00     0.000  -1.
3000022   2   4   0   0   0   3.7407925841E+01   -2.1220185186E+01   -1.9080530051E+01   4.7050805541E+01   2.5000000000E-01   4.382723E-01   0.
3000001    1    5    0    0    0  -4.8576310361E+01   2.7150175642E+01  -1.9013347881E+01   5.8815791785E+01   1.0000000000E+00     0.000  -1.
3000022   2   5   0   0   0   -5.2436081600E+00   2.9789814331E+00   1.2095908507E+00   6.1559212910E+00   2.5000000000E-01   1.227006E+00   0.
13    1    7    0    0    0   1.1232380294E+01  -6.3259157270E+00  -5.6947600565E+00   1.4093434428E+01   1.0500000000E-01     0.000   1.
-13    1    7    0    0    0   2.6175545546E+01  -1.4894269459E+01  -1.3385769995E+01   3.2957371113E+01   1.0500000000E-01     0.000  -1.
13    1    9    0    0    0  -2.9729247809E+00   1.6921269092E+00   7.5292508450E-01   3.5042112397E+00   1.0500000000E-01     0.000  -1.
-13    1    9    0    0    0  -2.2706833792E+00   1.2868545239E+00   4.5666576620E-01   2.6517100513E+00   1.0500000000E-01     0.000   1.
</event>
<event>
 13   1  9.2978750E-05  1.2500000E+02  7.5467720E-03  1.2380620E-01
   21   -1    0    0  502  501   0.0000000000E+00   0.0000000000E+00   4.5455333265E+01   4.5455333265E+01   0.0000000000E+00     0.000  -1.
   21   -1    0    0  501  502   0.0000000000E+00   0.0000000000E+00  -8.5936010571E+01   8.5936010571E+01   0.0000000000E+00     0.000  -1.
   25    2    1    2    0    0   0.0000000000E+00   0.0000000000E+00  -4.0480677306E+01   1.3139134384E+02   1.2500000000E+02  7.427E-09  -1.
3000002    2    3    0    0    0   9.4186471625E+00   5.0654492954E+01   1.5430979048E+01   5.4705609266E+01   1.0000000000E+01  7.058E-11   1.
3000002    2    3    0    0    0  -9.4186471625E+00  -5.0654492954E+01  -5.5911656354E+01   7.6685734574E+01   1.0000000000E+01  1.165E-10   1.
3000001    1    4    0    0    0   1.0863728695E+01   4.5285081337E+01   1.5638230206E+01   4.9135663594E+01   1.0000000000E+00     0.000   1.
3000022   2   4   0   0   0   -1.4450815324E+00   5.3694116172E+00   -2.0725115777E-01   5.5699456723E+00   2.5000000000E-01   8.571429E+00   0.
3000001    1    5    0    0    0   1.6684415325E+00  -5.4420087370E+00  -4.4630238023E+00   7.3018995954E+00   1.0000000000E+00     0.000   1.
3000022   2   5   0   0   0   -1.1087088695E+01   -4.5212484217E+01   -5.1448632552E+01   6.9383834978E+01   2.5000000000E-01   8.851947E+00   0.
13    1    7    0    0    0  -8.7970220962E-01   3.3137666653E+00  -6.7575620875E-02   3.4308187003E+00   1.0500000000E-01     0.000  -1.
-13    1    7    0    0    0  -5.6537932275E-01   2.0556449519E+00  -1.3967553690E-01   2.1391269720E+00   1.0500000000E-01     0.000   1.
13    1    9    0    0    0  -5.0005069434E+00  -2.0231402203E+01  -2.3113571081E+01   3.1121743169E+01   1.0500000000E-01     0.000   1.
-13    1    9    0    0    0  -6.0865817517E+00  -2.4981082015E+01  -2.8335061471E+01   3.8262091809E+01   1.0500000000E-01     0.000  -1.
</event>
<event>
 13   1  9.2978750E-05  1.2500000E+02  7.5467720E-03  1.2380620E-01
   21   -1    0    0  502  501   0.0000000000E+00   0.0000000000E+00   2.6052113504E+02   2.6052113504E+02   0.0000000000E+00     0.000  -1.
   21   -1    0    0  501  502   0.0000000000E+00   0.0000000000E+00  -1.4993985035E+01   1.4993985035E+01   0.0000000000E+00     0.000  -1.
   25    2    1    2    0    0   0.0000000000E+00   0.0000000000E+00   2.4552715001E+02   2.7551512008E+02   1.2500000000E+02  4.316E-09  -1.
3000002    2    3    0    0    0  -2.6598561788E+00  -4.5054835657E+01   2.1547396862E+02   2.2037705009E+02   1.0000000000E+01  5.093E-11  -1.
3000002    2    3    0    0    0   2.6598561788E+00   4.5054835657E+01   3.0053181385E+01   5.5138069991E+01   1.0000000000E+01  1.610E-11  -1.
3000001    1    4    0    0    0  -2.1427558800E+00  -4.2043940546E+01   2.0917773715E+02   2.1337434255E+02   1.0000000000E+00     0.000  -1.
3000022   2   4   0   0   0   -5.1710029879E-01   -3.0108951110E+00   6.2962314707E+00   7.0027075351E+00   2.5000000000E-01   1.795433E+00   0.
3000001    1    5    0    0    0   1.3636277898E+00   2.3048164952E+00  -1.0631818836E-02   2.8586312916E+00   1.0000000000E+00     0.000  -1.
3000022   2   5   0   0   0   1.2962283890E+00   4.2750019162E+01   3.0063813204E+01   5.2279438699E+01   2.5000000000E-01   3.703185E+00   0.
13    1    7    0    0    0  -2.4747582297E-01  -1.2093173629E+00   2.6607388448E+00   2.9350040830E+00   1.0500000000E-01     0.000   1.
-13    1    7    0    0    0  -2.6962447582E-01  -1.8015777481E+00   3.6354926260E+00   4.0677034521E+00   1.0500000000E-01     0.000  -1.
13    1    9    0    0    0   6.1533102394E-01   1.9218552928E+01   1.3445077427E+01   2.3463003663E+01   1.0500000000E-01     0.000  -1.
-13    1    9    0    0    0   6.8089736507E-01   2.3531466234E+01   1.6618735777E+01   2.8816435036E+01   1.0500000000E-01     0.000   1.
</event>
<event>
 13   1  9.2978750E-05  1.2500000E+02  7.5467720E-03  1.2380620E-01
   21   -1    0    0  502  501   0.0000000000E+00   0.0000000000E+00   9.7141008191E+01   9.7141008191E+01   0.0000000000E+00     0.000  -1.
   21   -1    0    0  501  502   0.0000000000E+00   0.0000000000E+00  -4.0212162430E+01   4.0212162430E+01   0.0000000000E+00     0.000  -1.
   25    2    1    2    0    0   0.0000000000E+00   0.0000000000E+00   5.6928845761E+01   1.3735317062E+02   1.2500000000E+02  9.052E-08  -1.
3000002    2    3    0    0    0   5.1889683284E+01   1.4869300931E+01  -4.3648061100E+00   5.5069836334E+01   1.0000000000E+01  4.947E-10  -1.
3000002    2    3    0    0    0  -5.1889683284E+01  -1.4869300931E+01   6.1293651871E+01   8.2283334286E+01   1.0000000000E+01  1.677E-10  -1.
3000001    1    4    0    0    0   1.0499378584E+01   5.1392836481E-01  -3.9029540336E+00   1.1257625113E+01   1.0000000000E+00     0.000  -1.
3000022   2   4   0   0   0   4.1390304700E+01   1.4355372566E+01   -4.6185207639E-01   4.3812211221E+01   2.5000000000E-01   5.177671E+00   0.
3000001    1    5    0    0    0  -1.4651539930E+00  -4.5756394223E-01   3.2230669631E-01   1.8600867160E+00   1.0000000000E+00     0.000  -1.
3000022   2   5   0   0   0   -5.0424529291E+01   -1.4411736989E+01   6.0971345175E+01   8.0423247570E+01   2.5000000000E-01   3.843625E+00   0.
13    1    7    0    0    0   2.4935752006E+01   8.5904117583E+00  -3.0874755009E-01   2.6375997656E+01   1.0500000000E-01     0.000   1.
-13    1    7    0    0    0   1.6454552694E+01   5.7649608082E+00  -1.5310452630E-01   1.7436213565E+01   1.0500000000E-01     0.000  -1.
13    1    9    0    0    0  -3.5686957552E+01  -1.0243952464E+01   4.3178857341E+01   5.6946661427E+01   1.0500000000E-01     0.000  -1.
-13    1    9    0    0    0  -1.4737571739E+01  -4.1677845247E+00   1.7792487834E+01   2.3476586143E+01   1.0500000000E-01     0.000   1.
</event>
<event>
 13   1  9.2978750E-05  1.2500000E+02  7.5467720E-03  1.2380620E-01
   21   -1    0    0  502  501   0.0000000000E+00   0.0000000000E+00   1.0533726115E+02   1.0533726115E+02   0.0000000000E+00     0.000   1.
   21   -1    0    0  501  502   0.0000000000E+00   0.0000000000E+00  -3.7083269086E+01   3.7083269086E+01   0.0000000000E+00     0.000   1.
   25    2    1    2    0    0   0.0000000000E+00   0.0000000000E+00   6.8253992064E+01   1.4242053024E+02   1.2500000000E+02  5.753E-08  -1.
3000002    2    3    0    0    0   4.4392677319E+01  -1.7461312774E+01  -1.0448840868E+01   4.9847623000E+01   1.0000000000E+01  4.034E-11   1.
3000002    2    3    0    0    0  -4.4392677319E+01   1.7461312774E+01   7.8702832932E+01   9.2572907240E+01   1.0000000000E+01  6.384E-10   1.
3000001    1    4    0    0    0   1.8166212071E+01  -2.6814216679E+00  -1.5544959525E+00   1.8455832163E+01   1.0000000000E+00     0.000   1.
3000022   2   4   0   0   0   2.6226465248E+01   -1.4779891106E+01   -8.8943449153E+00   3.1391790837E+01   2.5000000000E-01   2.175356E+01   0.
3000001    1    5    0    0    0  -4.2021976289E+01   1.8688260214E+01   7.3249800936E+01   8.6496421303E+01   1.0000000000E+00     0.000   1.
3000022   2   5   0   0   0   -2.3707010293E+00   -1.2269474397E+00   5.4530319955E+00   6.0764859363E+00   2.5000000000E-01   6.611072E+00   0.
13    1    7    0    0    0   1.7754313218E+01  -9.9518472423E+00  -6.0361896125E+00   2.1229731779E+01   1.0500000000E-01     0.000  -1.
-13    1    7    0    0    0   8.4721520297E+00  -4.8280438638E+00  -2.8581553028E+00   1.0162059058E+01   1.0500000000E-01     0.000   1.
13    1    9    0    0    0  -1.8218682570E+00  -9.3353961761E-01   4.1445585583E+00   4.6237528921E+00   1.0500000000E-01     0.000  -1.
-13    1    9    0    0    0  -5.4883277225E-01  -2.9340782209E-01   1.3084734371E+00   1.4527330442E+00   1.0500000000E-01     0.000   1.
</event>
<event>
 13   1  9.2978750E-05  1.2500000E+02  7.5467720E-03  1.2380620E-01
   21   -1    0    0  502  501   0.0000000000E+00   0.0000000000E+00   5.2122539126E+01   5.2122539126E+01   0.0000000000E+00     0.000   1.
   21   -1    0    0  501  502   0.0000000000E+00   0.0000000000E+00  -7.4943586125E+01   7.4943586125E+01   0.0000000000E+00     0.000   1.
   25    2    1    2    0    0   0.0000000000E+00   0.0000000000E+00  -2.2821046999E+01   1.2706612525E+02   1.2500000000E+02  2.021E-08  -1.
3000002    2    3    0    0    0  -1.5616283768E+01   4.7050659730E+01   2.5920002114E+01   5.6828508773E+01   1.0000000000E+01  1.658E-10  -1.
3000002    2    3    0    0    0   1.5616283768E+01  -4.7050659730E+01  -4.8741049113E+01   7.0237616477E+01   1.0000000000E+01  3.428E-11  -1.
3000001    1    4    0    0    0  -1.0476348472E+01   4.1594749336E+01   2.3654029749E+01   4.8993776880E+01   1.0000000000E+00     0.000  -1.
3000022   2   4   0   0   0   -5.1399352952E+00   5.4559103937E+00   2.2659723657E+00   7.8347318924E+00   2.5000000000E-01   5.181076E+00   0.
3000001    1    5    0    0    0   6.7374953528E+00  -1.0261236788E+01  -8.3132048124E+00   1.4859212573E+01   1.0000000000E+00     0.000   1.
3000022   2   5   0   0   0   8.8787884149E+00   -3.6789422942E+01   -4.0427844301E+01   5.5378403904E+01   2.5000000000E-01   8.101119E+00   0.
13    1    7    0    0    0  -2.3646506794E+00   2.5136123647E+00   9.7331573614E-01   3.5872257355E+00   1.0500000000E-01     0.000   1.
-13    1    7    0    0    0  -2.7752846158E+00   2.9422980290E+00   1.2926566295E+00   4.2475061568E+00   1.0500000000E-01     0.000  -1.
13    1    9    0    0    0   5.2963798910E+00  -2.2046379334E+01  -2.4306134195E+01   3.3239940827E+01   1.0500000000E-01     0.000   1.
-13    1    9    0    0    0   3.5824085238E+00  -1.4743043608E+01  -1.6121710105E+01   2.2138463076E+01   1.0500000000E-01     0.000  -1.
</event>
<event>
 13   1  9.2978750E-05  1.2500000E+02  7.5467720E-03  1.2380620E-01
   21   -1    0    0  502  501   0.0000000000E+00   0.0000000000E+00   1.1977443590E+02   1.1977443590E+02   0.0000000000E+00     0.000  -1.
   21   -1    0    0  501  502   0.0000000000E+00   0.0000000000E+00  -3.2613386745E+01   3.2613386745E+01   0.0000000000E+00     0.000  -1.
   25    2    1    2    0    0   0.0000000000E+00   0.0000000000E+00   8.7161049151E+01   1.5238782264E+02   1.2500000000E+02  3.247E-08  -1.
3000002    2    3    0    0    0  -1.4599338324E+01   5.6840277905E+00   1.1632736096E+02   1.1780281728E+02   1.0000000000E+01  4.651E-10   1.
3000002    2    3    0    0    0   1.4599338324E+01  -5.6840277905E+00  -2.9166311807E+01   3.4585005361E+01   1.0000000000E+01  2.177E-10   1.
3000001    1    4    0    0    0  -1.2328992863E+01   7.0918453037E+00   1.1013572268E+02   1.1105483216E+02   1.0000000000E+00     0.000   1.
3000022   2   4   0   0   0   -2.2703454607E+00   -1.4078175131E+00   6.1916382771E+00   6.7479851227E+00   2.5000000000E-01   1.449201E+01   0.
3000001    1    5    0    0    0   6.4069619610E-01  -3.2533171434E+00  -1.1077823867E+01   1.1606581999E+01   1.0000000000E+00     0.000  -1.
3000022   2   5   0   0   0   1.3958642127E+01   -2.4307106472E+00   -1.8088487940E+01   2.2978423363E+01   2.5000000000E-01   3.869477E-01   0.
13    1    7    0    0    0  -7.9344432741E-01  -4.2812182415E-01   2.0898206421E+00   2.2784243488E+00   1.0500000000E-01     0.000   1.
-13    1    7    0    0    0  -1.4769011333E+00  -9.7969568899E-01   4.1018176350E+00   4.4695607739E+00   1.0500000000E-01     0.000  -1.
13    1    9    0    0    0   3.7449847245E+00  -6.8579786751E-01  -4.8412981625E+00   6.1599043986E+00   1.0500000000E-01     0.000  -1.
-13    1    9    0    0    0   1.0213657403E+01  -1.7449127797E+00  -1.3247189777E+01   1.6818518964E+01   1.0500000000E-01     0.000   1.
</event>
<event>
 13   1  9.2978750E-05  1.2500000E+02  7.5467720E-03  1.2380620E-01
   21   -1    0    0  502  501   0.0000000000E+00   0.0000000000E+00   8.2411466354E+02   8.2411466354E+02   0.0000000000E+00     0.000   1.
   21   -1    0    0  501  502   0.0000000000E+00   0.0000000000E+00  -4.7399350756E+00   4.7399350756E+00   0.0000000000E+00     0.000   1.
   25    2    1    2    0    0   0.0000000000E+00   0.0000000000E+00   8.1937472846E+02   8.2885459861E+02   1.2500000000E+02  2.125E-08  -1.
3000002    2    3    0    0    0   1.6369311458E+01   2.1400324651E+01   7.7770309197E+02   7.7823391567E+02   1.0000000000E+01  1.581E-10   1.
3000002    2    3    0    0    0  -1.6369311458E+01  -2.1400324651E+01   4.1671636494E+01   5.0620682936E+01   1.0000000000E+01  8.084E-11   1.
3000001    1    4    0    0    0  -1.0873293558E-02   3.3713642027E+00   1.8041948074E+02   1.8045374822E+02   1.0000000000E+00     0.000   1.
3000022   2   4   0   0   0   1.6380184752E+01   1.8028960448E+01   5.9728361122E+02   5.9778016745E+02   2.5000000000E-01   2.342556E-01   0.
3000001    1    5    0    0    0  -1.6826336270E+01  -2.1705855423E+01   3.7981095807E+01   4.6881055775E+01   1.0000000000E+00     0.000   1.
3000022   2   5   0   0   0   4.5702481241E-01   3.0553077237E-01   3.6905406874E+00   3.7396271602E+00   2.5000000000E-01   2.299061E+00   0.
13    1    7    0    0    0   8.8211739581E+00   9.6828138545E+00   3.1958415975E+02   3.1985249129E+02   1.0500000000E-01     0.000   1.
-13    1    7    0    0    0   7.5590107934E+00   8.3461465935E+00   2.7769945147E+02   2.7792767616E+02   1.0500000000E-01     0.000  -1.
13    1    9    0    0    0   1.3726192285E-01   1.1098380624E-01   1.6136145903E+00   1.6266331138E+00   1.0500000000E-01     0.000  -1.
-13    1    9    0    0    0   3.1976288955E-01   1.9454696613E-01   2.0769260971E+00   2.1129940465E+00   1.0500000000E-01     0.000   1.
</event>
<event>
 13   1  9.2978750E-05  1.2500000E+02  7.5467720E-03  1.2380620E-01
   21   -1    0    0  502  501   0.0000000000E+00   0.0000000000E+00   2.2716619298E+01   2.2716619298E+01   0.0000000000E+00     0.000   1.
   21   -1    0    0  501  502   0.0000000000E+00   0.0000000000E+00  -1.7195560434E+02   1.7195560434E+02   0.0000000000E+00     0.000   1.
   25    2    1    2    0    0   0.0000000000E+00   0.0000000000E+00  -1.4923898504E+02   1.9467222364E+02   1.2500000000E+02  1.981E-09  -1.
3000002    2    3    0    0    0   4.2784912578E+01   3.8884102862E+01  -1.0815659539E+02   1.2304621622E+02   1.0000000000E+01  5.004E-10  -1.
3000002    2    3    0    0    0  -4.2784912578E+01  -3.8884102862E+01  -4.1082389653E+01   7.1626007422E+01   1.0000000000E+01  2.257E-09  -1.
3000001    1    4    0    0    0   3.9476459867E+01   3.6961895197E+01  -9.4744081456E+01   1.0909634985E+02   1.0000000000E+00     0.000  -1.
3000022   2   4   0   0   0   3.3084527114E+00   1.9222076650E+00   -1.3412513932E+01   1.3949866366E+01   2.5000000000E-01   4.504540E+00   0.
3000001    1    5    0    0    0  -4.3032351124E+01  -3.7098208977E+01  -3.9403980942E+01   6.9150083635E+01   1.0000000000E+00     0.000  -1.
3000022   2   5   0   0   0   2.4743854636E-01   -1.7858938853E+00   -1.6784087102E+00   2.4759237876E+00   2.5000000000E-01   6.868234E+00   0.
13    1    7    0    0    0   1.3211247488E+00   8.3500013581E-01  -5.3852378334E+00   5.6084228933E+00   1.0500000000E-01     0.000  -1.
-13    1    7    0    0    0   1.9873279626E+00   1.0872075292E+00  -8.0272760982E+00   8.3414434722E+00   1.0500000000E-01     0.000   1.
13    1    9    0    0    0   2.0123050977E-01  -1.0479515038E+00  -1.0324010921E+00   1.4884801266E+00   1.0500000000E-01     0.000   1.
-13    1    9    0    0    0   4.6208036591E-02  -7.3794238150E-01  -6.4600761810E-01   9.8744366103E-01   1.0500000000E-01     0.000  -1.
</event>
<event>
 13   1  9.2978750E-05  1.2500000E+02  7.5467720E-03  1.2380620E-01
   21   -1    0    0  502  501   0.0000000000E+00   0.0000000000E+00   5.3937202001E+02   5.3937202001E+02   0.0000000000E+00     0.000   1.
   21   -1    0    0  501  502   0.0000000000E+00   0.0000000000E+00  -7.2422184597E+00   7.2422184597E+00   0.0000000000E+00     0.000   1.
   25    2    1    2    0    0   0.0000000000E+00   0.0000000000E+00   5.3212980155E+02   5.4661423847E+02   1.2500000000E+02  2.780E-09  -1.
3000002    2    3    0    0    0   2.5236855109E+01  -4.4633670655E+01   4.1610024532E+02   4.1936675783E+02   1.0000000000E+01  2.297E-09  -1.
3000002    2    3    0    0    0  -2.5236855109E+01   4.4633670655E+01   1.1602955623E+02   1.2724748064E+02   1.0000000000E+01  1.032E-09  -1.
3000001    1    4    0    0    0   5.8300279288E+00  -1.8157627470E+01   1.7590615796E+02   1.7693972157E+02   1.0000000000E+00     0.000  -1.
3000022   2   4   0   0   0   1.9406827181E+01   -2.6476043184E+01   2.4019408736E+02   2.4242703626E+02   2.5000000000E-01   4.068148E+00   -1.
3000001    1    5    0    0    0  -2.5754157815E+01   4.0115647614E+01   1.0636885392E+02   1.1656704042E+02   1.0000000000E+00     0.000  -1.
3000022   2   5   0   0   0   5.1730270554E-01   4.5180230407E+00   9.6607023018E+00   1.0680440218E+01   2.5000000000E-01   4.251888E-01   0.
13    1    7    0    0    0   4.7105829303E+00  -6.4631427456E+00   5.8486698515E+01   5.9031065837E+01   1.0500000000E-01     0.000  -1.
-13    1    7    0    0    0   1.4696244250E+01  -2.0012900439E+01   1.8170738885E+02   1.8339597042E+02   1.0500000000E-01     0.000  -1.
13    1    9    0    0    0   2.1611023035E-01   2.0297057300E+00   4.1860624647E+00   4.6583852289E+00   1.0500000000E-01     0.000  -1.
-13    1    9    0    0    0   3.0119247520E-01   2.4883173107E+00   5.4746398371E+00   6.0220549891E+00   1.0500000000E-01     0.000   1.
</event>
<event>
 13   1  9.2978750E-05  1.2500000E+02  7.5467720E-03  1.2380620E-01
   21   -1    0    0  502  501   0.0000000000E+00   0.0000000000E+00   1.9574809458E+02   1.9574809458E+02   0.0000000000E+00     0.000  -1.
   21   -1    0    0  501  502   0.0000000000E+00   0.0000000000E+00  -1.9955494373E+01   1.9955494373E+01   0.0000000000E+00     0.000  -1.
   25    2    1    2    0    0   0.0000000000E+00   0.0000000000E+00   1.7579260021E+02   2.1570358895E+02   1.2500000000E+02  2.883E-08  -1.
3000002    2    3    0    0    0  -1.2215387949E+01  -3.1471082609E+01   1.7700635753E+02   1.8047408498E+02   1.0000000000E+01  6.679E-10   1.
3000002    2    3    0    0    0   1.2215387949E+01   3.1471082609E+01  -1.2137573174E+00   3.5229503973E+01   1.0000000000E+01  2.793E-12   1.
3000001    1    4    0    0    0  -1.2570233335E+01  -2.8212325795E+01   1.4253961788E+02   1.4585091278E+02   1.0000000000E+00     0.000   1.
3000022   2   4   0   0   0   3.5484538591E-01   -3.2587568141E+00   3.4466739645E+01   3.4623172197E+01   2.5000000000E-01   1.439675E+01   0.
3000001    1    5    0    0    0   5.8992567981E+00   4.7546708268E+00   8.9436390709E-01   7.6946742776E+00   1.0000000000E+00     0.000  -1.
3000022   2   5   0   0   0   6.3161311511E+00   2.6716411782E+01   -2.1081212245E+00   2.7534829695E+01   2.5000000000E-01   3.451778E+00   0.
13    1    7    0    0    0   7.8874536640E-02  -1.2994816522E+00   1.3611307314E+01   1.3673828489E+01   1.0500000000E-01     0.000  -1.
-13    1    7    0    0    0   2.7597084928E-01  -1.9592751619E+00   2.0855432331E+01   2.0949343707E+01   1.0500000000E-01     0.000   1.
13    1    9    0    0    0   3.8247465318E+00   1.6250352549E+01  -1.3420770213E+00   1.6748577245E+01   1.0500000000E-01     0.000   1.
-13    1    9    0    0    0   2.4913846192E+00   1.0466059233E+01  -7.6604420315E-01   1.0786252450E+01   1.0500000000E-01     0.000  -1.
</event>
<event>
 13   1  9.2978750E-05  1.2500000E+02  7.5467720E-03  1.2380620E-01
   21   -1    0    0  502  501   0.0000000000E+00   0.0000000000E+00   1.7274222542E+02   1.7274222542E+02   0.0000000000E+00     0.000   1.
   21   -1    0    0  501  502   0.0000000000E+00   0.0000000000E+00  -2.2613173996E+01   2.2613173996E+01   0.0000000000E+00     0.000   1.
   25    2    1    2    0    0   0.0000000000E+00   0.0000000000E+00   1.5012905143E+02   1.9535539942E+02   1.2500000000E+02  5.649E-08  -1.
3000002    2    3    0    0    0   4.1136048523E+01   1.4991580281E+01   1.4299569504E+02   1.4988225635E+02   1.0000000000E+01  1.027E-09  -1.
3000002    2    3    0    0    0  -4.1136048523E+01  -1.4991580281E+01   7.1333563866E+00   4.5473143071E+01   1.0000000000E+01  7.479E-10  -1.
3000001    1    4    0    0    0   2.3899864044E+01   1.0767200123E+01   6.9828590608E+01   7.4593352023E+01   1.0000000000E+00     0.000   1.
3000022   2   4   0   0   0   1.7236184479E+01   4.2243801587E+00   7.3167104435E+01   7.5288904326E+01   2.5000000000E-01   3.416352E-01   0.
3000001    1    5    0    0    0  -3.8995542455E+01  -1.5640521675E+01   4.9159158597E+00   4.2313644115E+01   1.0000000000E+00     0.000  -1.
3000022   2   5   0   0   0   -2.1405060681E+00   6.4894139305E-01   2.2174405269E+00   3.1594989554E+00   2.5000000000E-01   4.944552E+00   0.
13    1    7    0    0    0   7.0983878639E+00   1.6945419578E+00   2.9891264429E+01   3.0769421459E+01   1.0500000000E-01     0.000   1.
-13    1    7    0    0    0   1.0137796615E+01   2.5298382009E+00   4.3275840006E+01   4.4519482867E+01   1.0500000000E-01     0.000  -1.
13    1    9    0    0    0  -1.5603192951E+00   4.3756234078E-01   1.6259443365E+00   2.2979941449E+00   1.0500000000E-01     0.000   1.
-13    1    9    0    0    0  -5.8018677303E-01   2.1137905227E-01   5.9149619037E-01   8.6150481052E-01   1.0500000000E-01     0.000  -1.
</event>
<event>
 13   1  9.2978750E-05  1.2500000E+02  7.5467720E-03  1.2380620E-01
   21   -1    0    0  502  501   0.0000000000E+00   0.0000000000E+00   4.3817778980E+01   4.3817778980E+01   0.0000000000E+00     0.000   1.
   21   -1    0    0  501  502   0.0000000000E+00   0.0000000000E+00  -8.9147603802E+01   8.9147603802E+01   0.0000000000E+00     0.000   1.
   25    2    1    2    0    0   0.0000000000E+00   0.0000000000E+00  -4.5329824821E+01   1.3296538278E+02   1.2500000000E+02  1.997E-07  -1.
3000002    2    3    0    0    0  -1.5039455499E+01  -9.4155099067E+00   4.0188546783E+01   4.5055036800E+01   1.0000000000E+01  6.993E-11  -1.
3000002    2    3    0    0    0   1.5039455499E+01   9.4155099067E+00  -8.5518371604E+01   8.7910345980E+01   1.0000000000E+01  1.031E-09  -1.
3000001    1    4    0    0    0  -7.1558483411E+00  -3.6327629411E+00   7.8525546905E+00   1.1272344354E+01   1.0000000000E+00     0.000   1.
3000022   2   4   0   0   0   -7.8836071579E+00   -5.7827469656E+00   3.2335992093E+01   3.3782692446E+01   2.5000000000E-01   7.137670E+00   0.
3000001    1    5    0    0    0   9.7209531766E+00   8.4694316264E+00  -7.4750390239E+01   7.5860721349E+01   1.0000000000E+00     0.000  -1.
3000022   2   5   0   0   0   5.3185023223E+00   9.4607828028E-01   -1.0767981365E+01   1.2049624631E+01   2.5000000000E-01   1.155059E+01   0.
13    1    7    0    0    0  -3.0418389839E+00  -2.1914321395E+00   1.2581424421E+01   1.3128534750E+01   1.0500000000E-01     0.000  -1.
-13    1    7    0    0    0  -4.8417681739E+00  -3.5913148260E+00   1.9754567672E+01   2.0654157696E+01   1.0500000000E-01     0.000   1.
13    1    9    0    0    0   2.9922272535E+00   4.9036043296E-01  -5.9271075440E+00   6.6584912802E+00   1.0500000000E-01     0.000  -1.
-13    1    9    0    0    0   2.3262750689E+00   4.5571784733E-01  -4.8408738213E+00   5.3911333508E+00   1.0500000000E-01     0.000   1.
</event>
<event>
 13   1  9.2978750E-05  1.2500000E+02  7.5467720E-03  1.2380620E-01
   21   -1    0    0  502  501   0.0000000000E+00   0.0000000000E+00   9.0803359111E+00   9.0803359111E+00   0.0000000000E+00     0.000   1.
   21   -1    0    0  501  502   0.0000000000E+00   0.0000000000E+00  -4.3018782986E+02   4.3018782986E+02   0.0000000000E+00     0.000   1.
   25    2    1    2    0    0   0.0000000000E+00   0.0000000000E+00  -4.2110749395E+02   4.3926816577E+02   1.2500000000E+02  1.276E-08  -1.
3000002    2    3    0    0    0   1.9533402370E+01  -4.5784988634E+01  -3.3863607704E+02   3.4242110283E+02   1.0000000000E+01  3.582E-10   1.
3000002    2    3    0    0    0  -1.9533402370E+01   4.5784988634E+01  -8.2471416909E+01   9.6847062936E+01   1.0000000000E+01  2.087E-10   1.
3000001    1    4    0    0    0   5.0071113690E+00  -4.7768616728E+00  -3.5855903015E+01   3.6531292788E+01   1.0000000000E+00     0.000  -1.
3000022   2   4   0   0   0   1.4526291001E+01   -4.1008126961E+01   -3.0278017403E+02   3.0588981005E+02   2.5000000000E-01   4.420132E+00   0.
3000001    1    5    0    0    0  -1.7350569112E+01   3.3552621724E+01  -6.7805147539E+01   7.7623184075E+01   1.0000000000E+00     0.000   1.
3000022   2   5   0   0   0   -2.1828332579E+00   1.2232366910E+01   -1.4666269370E+01   1.9223878861E+01   2.5000000000E-01   1.638203E+00   0.
13    1    7    0    0    0   4.9470348875E+00  -1.3913215804E+01  -1.0240769503E+02   1.0346689207E+02   1.0500000000E-01     0.000   1.
-13    1    7    0    0    0   9.5792561133E+00  -2.7094911157E+01  -2.0037247899E+02   2.0242291797E+02   1.0500000000E-01     0.000  -1.
13    1    9    0    0    0  -1.1105299994E+00   6.0240235584E+00  -7.3198669374E+00   9.5453451322E+00   1.0500000000E-01     0.000  -1.
-13    1    9    0    0    0  -1.0723032585E+00   6.2083433514E+00  -7.3464024321E+00   9.6785337289E+00   1.0500000000E-01     0.000   1.
</event>
<event>
 13   1  9.2978750E-05  1.2500000E+02  7.5467720E-03  1.2380620E-01
   21   -1    0    0  502  501   0.0000000000E+00   0.0000000000E+00   9.1167424958E+01   9.1167424958E+01   0.0000000000E+00     0.000  -1.
   21   -1    0    0  501  502   0.0000000000E+00   0.0000000000E+00  -4.2846992792E+01   4.2846992792E+01   0.0000000000E+00     0.000  -1.
   25    2    1    2    0    0   0.0000000000E+00   0.0000000000E+00   4.8320432166E+01   1.3401441775E+02   1.2500000000E+02  3.355E-08  -1.
3000002    2    3    0    0    0   3.8453931882E+01   4.8178727743E+01   2.1457439896E+01   6.6032691987E+01   1.0000000000E+01  1.193E-11   1.
3000002    2    3    0    0    0  -3.8453931882E+01  -4.8178727743E+01   2.6862992270E+01   6.7981725763E+01   1.0000000000E+01  3.426E-10   1.
3000001    1    4    0    0    0   1.2595270913E+01   9.4515653169E+00   7.0956908384E+00   1.7300918033E+01   1.0000000000E+00     0.000   1.
3000022   2   4   0   0   0   2.5858660969E+01   3.8727162426E+01   1.4361749058E+01   4.8731773954E+01   2.5000000000E-01   6.593058E+00   0.
3000001    1    5    0    0    0  -6.4015891160E+00  -3.5146370046E+00   4.4703976585E+00   8.6207581865E+00   1.0000000000E+00     0.000   1.
3000022   2   5   0   0   0   -3.2052342766E+01   -4.4664090738E+01   2.2392594611E+01   5.9360967577E+01   2.5000000000E-01   1.086109E+00   0.
13    1    7    0    0    0   1.1228577487E+01   1.6746485706E+01   6.1628976379E+00   2.1083597135E+01   1.0500000000E-01     0.000   1.
-13    1    7    0    0    0   1.4630083483E+01   2.1980676720E+01   8.1988514200E+00   2.7648176819E+01   1.0500000000E-01     0.000  -1.
13    1    9    0    0    0  -1.5773315237E+01  -2.2011346267E+01   1.1100565291E+01   2.9266540841E+01   1.0500000000E-01     0.000   1.
-13    1    9    0    0    0  -1.6279027529E+01  -2.2652744472E+01   1.1292029320E+01   3.0094426736E+01   1.0500000000E-01     0.000  -1.
</event>
<event>
 13   1  9.2978750E-05  1.2500000E+02  7.5467720E-03  1.2380620E-01
   21   -1    0    0  502  501   0.0000000000E+00   0.0000000000E+00   7.6589817326E+00   7.6589817326E+00   0.0000000000E+00     0.000  -1.
   21   -1    0    0  501  502   0.0000000000E+00   0.0000000000E+00  -5.1002210691E+02   5.1002210691E+02   0.0000000000E+00     0.000  -1.
   25    2    1    2    0    0   0.0000000000E+00   0.0000000000E+00  -5.0236312517E+02   5.1768108864E+02   1.2500000000E+02  1.293E-07  -1.
3000002    2    3    0    0    0  -6.0437520958E+01  -2.7332964988E+00  -3.0123746845E+02   3.0741531720E+02   1.0000000000E+01  2.612E-10  -1.
3000002    2    3    0    0    0   6.0437520958E+01   2.7332964988E+00  -2.0112565672E+02   2.1026577144E+02   1.0000000000E+01  1.258E-10  -1.
3000001    1    4    0    0    0  -2.9744383935E+01   2.0472283821E+00  -1.6566235371E+02   1.6832686939E+02   1.0000000000E+00     0.000  -1.
3000022   2   4   0   0   0   -3.0693137023E+01   -4.7805248809E+00   -1.3557511474E+02   1.3908844781E+02   2.5000000000E-01   2.205188E-01   0.
3000001    1    5    0    0    0   2.2100505515E+01  -2.8389161176E+00  -8.3310691846E+01   8.6244786304E+01   1.0000000000E+00     0.000   1.
3000022   2   5   0   0   0   3.8337015443E+01   5.5722126164E+00   -1.1781496487E+02   1.2402098514E+02   2.5000000000E-01   6.122362E-01   0.
13    1    7    0    0    0  -1.3625888143E+01  -2.1835268987E+00  -6.0106848065E+01   6.1670712877E+01   1.0500000000E-01     0.000  -1.
-13    1    7    0    0    0  -1.7067248880E+01  -2.5969979821E+00  -7.5468266671E+01   7.7417734933E+01   1.0500000000E-01     0.000   1.
13    1    9    0    0    0   2.1694555348E+01   3.1275890296E+00  -6.6853129426E+01   7.0354726095E+01   1.0500000000E-01     0.000  -1.
-13    1    9    0    0    0   1.6642460095E+01   2.4446235867E+00  -5.0961835447E+01   5.3666259043E+01   1.0500000000E-01     0.000   1.
</event>
<event>
 13   1  9.2978750E-05  1.2500000E+02  7.5467720E-03  1.2380620E-01
   21   -1    0    0  502  501   0.0000000000E+00   0.0000000000E+00   1.8050421092E+02   1.8050421092E+02   0.0000000000E+00     0.000  -1.
   21   -1    0    0  501  502   0.0000000000E+00   0.0000000000E+00  -2.1640769377E+01   2.1640769377E+01   0.0000000000E+00     0.000  -1.
   25    2    1    2    0    0   0.0000000000E+00   0.0000000000E+00   1.5886344154E+02   2.0214498029E+02   1.2500000000E+02  7.404E-08  -1.
3000002    2    3    0    0    0  -3.9156286141E+01   1.7056753240E+00   2.3807840803E+00   4.0519035101E+01   1.0000000000E+01  2.243E-10  -1.
3000002    2    3    0    0    0   3.9156286141E+01  -1.7056753240E+00   1.5648265746E+02   1.6162594519E+02   1.0000000000E+01  2.367E-10  -1.
3000001    1    4    0    0    0  -1.8917085517E+01   8.3289126931E-01  -3.7975853755E+00   1.9338342406E+01   1.0000000000E+00     0.000  -1.
3000022   2   4   0   0   0   -2.0239200624E+01   8.7278405472E-01   6.1783694558E+00   2.1180692695E+01   2.5000000000E-01   4.140077E+00   0.
3000001    1    5    0    0    0   3.9092814455E+01  -4.3055469429E-01   1.5257870690E+02   1.5751093714E+02   1.0000000000E+00     0.000  -1.
3000022   2   5   0   0   0   6.3471685887E-02   -1.2751206297E+00   3.9039505627E+00   4.1150080524E+00   2.5000000000E-01   8.370351E+00   0.
13    1    7    0    0    0  -9.3905744772E+00   4.6747563194E-01   2.8934780243E+00   9.8379196254E+00   1.0500000000E-01     0.000  -1.
-13    1    7    0    0    0  -1.0848626146E+01   4.0530842278E-01   3.2848914315E+00   1.1342773069E+01   1.0500000000E-01     0.000   1.
13    1    9    0    0    0   6.7614382209E-02  -7.8527333198E-01   2.5639293116E+00   2.6843964732E+00   1.0500000000E-01     0.000  -1.
-13    1    9    0    0    0  -4.1426963214E-03  -4.8984729776E-01   1.3400212511E+00   1.4306115792E+00   1.0500000000E-01     0.000   1.
</event>
<event>
 13   1  9.2978750E-05  1.2500000E+02  7.5467720E-03  1.2380620E-01
   21   -1    0    0  502  501   0.0000000000E+00   0.0000000000E+00   6.0394342989E+01   6.0394342989E+01   0.0000000000E+00     0.000  -1.
   21   -1    0    0  501  502   0.0000000000E+00   0.0000000000E+00  -6.4679071030E+01   6.4679071030E+01   0.0000000000E+00     0.000  -1.
   25    2    1    2    0    0   0.0000000000E+00   0.0000000000E+00  -4.2847280405E+00   1.2507341402E+02   1.2500000000E+02  3.266E-08  -1.
3000002    2    3    0    0    0  -4.4664769736E+01   7.0690916785E+00   3.9850561613E+01   6.1098125779E+01   1.0000000000E+01  6.875E-10  -1.
3000002    2    3    0    0    0   4.4664769736E+01  -7.0690916785E+00  -4.4135289654E+01   6.3975288241E+01   1.0000000000E+01  8.006E-10  -1.
3000001    1    4    0    0    0  -1.2700493756E+01   4.9155297481E+00   7.5488097221E+00   1.5602868408E+01   1.0000000000E+00     0.000   1.
3000022   2   4   0   0   0   -3.1964275980E+01   2.1535619305E+00   3.2301751891E+01   4.5495257370E+01   2.5000000000E-01   1.851458E+00   0.
3000001    1    5    0    0    0   2.2175007080E+01   1.3678693307E+00  -2.2734211327E+01   3.1803244649E+01   1.0000000000E+00     0.000   1.
3000022   2   5   0   0   0   2.2489762656E+01   -8.4369610092E+00   -2.1401078327E+01   3.2172043593E+01   2.5000000000E-01   4.710003E+00   0.
13    1    7    0    0    0  -2.0834078164E+01   1.4521950898E+00   2.1016502202E+01   2.9628906043E+01   1.0500000000E-01     0.000   1.
-13    1    7    0    0    0  -1.1130197816E+01   7.0136684072E-01   1.1285249689E+01   1.5866351327E+01   1.0500000000E-01     0.000  -1.
13    1    9    0    0    0   1.0486335021E+01  -3.9461204383E+00  -1.0071439677E+01   1.5065855796E+01   1.0500000000E-01     0.000  -1.
-13    1    9    0    0    0   1.2003427635E+01  -4.4908405709E+00  -1.1329638650E+01   1.7106187797E+01   1.0500000000E-01     0.000   1.
</event>
<event>
 13   1  9.2978750E-05  1.2500000E+02  7.5467720E-03  1.2380620E-01
   21   -1    0    0  502  501   0.0000000000E+00   0.0000000000E+00   8.8305710769E+01   8.8305710769E+01   0.0000000000E+00     0.000  -1.
   21   -1    0    0  501  502   0.0000000000E+00   0.0000000000E+00  -4.4235530930E+01   4.4235530930E+01   0.0000000000E+00     0.000  -1.
   25    2    1    2    0    0   0.0000000000E+00   0.0000000000E+00   4.4070179840E+01   1.3254124170E+02   1.2500000000E+02  5.406E-08  -1.
3000002    2    3    0    0    0  -3.0143500167E+01   4.0594163489E+01  -1.5449234755E+01   5.3807021532E+01   1.0000000000E+01  1.700E-09   1.
3000002    2    3    0    0    0   3.0143500167E+01  -4.0594163489E+01   5.9519414595E+01   7.8734220168E+01   1.0000000000E+01  7.024E-10   1.
3000001    1    4    0    0    0  -2.1764217433E+01   3.2066996574E+01  -1.5750304428E+01   4.1845495807E+01   1.0000000000E+00     0.000   1.
3000022   2   4   0   0   0   -8.3792827341E+00   8.5271669147E+00   3.0106967357E-01   1.1961525725E+01   2.5000000000E-01   4.426864E-01   0.
3000001    1    5    0    0    0   1.7010432496E+01  -2.9489564296E+01   3.5550949951E+01   4.9232705171E+01   1.0000000000E+00     0.000   1.
3000022   2   5   0   0   0   1.3133067671E+01   -1.1104599193E+01   2.3968464644E+01   2.9501514996E+01   2.5000000000E-01   1.651849E+01   -1.
13    1    7    0    0    0  -3.1054924176E+00   3.2457607250E+00   1.2000132127E-01   4.4949383930E+00   1.0500000000E-01     0.000   1.
-13    1    7    0    0    0  -5.2737903164E+00   5.2814061896E+00   1.8106835230E-01   7.4665873322E+00   1.0500000000E-01     0.000  -1.
13    1    9    0    0    0   3.5027477614E+00  -3.0040747491E+00   6.4562065497E+00   7.9364560725E+00   1.0500000000E-01     0.000   1.
-13    1    9    0    0    0   9.6303199099E+00  -8.1005244438E+00   1.7512258094E+01   2.1565058924E+01   1.0500000000E-01     0.000  -1.
</event>
<event>
 13   1  9.2978750E-05  1.2500000E+02  7.5467720E-03  1.2380620E-01
   21   -1    0    0  502  501   0.0000000000E+00   0.0000000000E+00   8.8372671419E+02   8.8372671419E+02   0.0000000000E+00     0.000  -1.
   21   -1    0    0  501  502   0.0000000000E+00   0.0000000000E+00  -4.4202013329E+00   4.4202013329E+00   0.0000000000E+00     0.000  -1.
   25    2    1    2    0    0   0.0000000000E+00   0.0000000000E+00   8.7930651286E+02   8.8814691552E+02   1.2500000000E+02  1.069E-07  -1.
3000002    2    3    0    0    0  -5.3846760882E+01  -2.9228423304E+01   4.9112318334E+02   4.9503106529E+02   1.0000000000E+01  2.919E-10  -1.
3000002    2    3    0    0    0   5.3846760882E+01   2.9228423304E+01   3.8818332952E+02   3.9311585023E+02   1.0000000000E+01  1.628E-12  -1.
3000001    1    4    0    0    0  -1.8137680453E+01  -1.4241085556E+01   2.0622199953E+02   2.0750975172E+02   1.0000000000E+00     0.000   1.
3000022   2   4   0   0   0   -3.5709080429E+01   -1.4987337749E+01   2.8490118381E+02   2.8752131357E+02   2.5000000000E-01   4.452145E+00   0.
3000001    1    5    0    0    0   3.9895392943E+01   1.8272553832E+01   2.5394289917E+02   2.5770821609E+02   1.0000000000E+00     0.000  -1.
3000022   2   5   0   0   0   1.3951367939E+01   1.0955869473E+01   1.3424043035E+02   1.3540763414E+02   2.5000000000E-01   9.938994E+00   0.
13    1    7    0    0    0  -2.2514882758E+01  -9.4013798296E+00   1.7920020511E+02   1.8085361601E+02   1.0500000000E-01     0.000  -1.
-13    1    7    0    0    0  -1.3194197670E+01  -5.5859579191E+00   1.0570097870E+02   1.0666769756E+02   1.0500000000E-01     0.000   1.
13    1    9    0    0    0   1.0459980131E+01   8.2276054653E+00   1.0051950993E+02   1.0139668426E+02   1.0500000000E-01     0.000  -1.
-13    1    9    0    0    0   3.4913878078E+00   2.7282640073E+00   3.3720920415E+01   3.4010949883E+01   1.0500000000E-01     0.000   1.
</event>
<event>
 13   1  9.2978750E-05  1.2500000E+02  7.5467720E-03  1.2380620E-01
   21   -1    0    0  502  501   0.0000000000E+00   0.0000000000E+00   1.1117415534E+01   1.1117415534E+01   0.0000000000E+00     0.000   1.
   21   -1    0    0  501  502   0.0000000000E+00   0.0000000000E+00  -3.5136313725E+02   3.5136313725E+02   0.0000000000E+00     0.000   1.
   25    2    1    2    0    0   0.0000000000E+00   0.0000000000E+00  -3.4024572172E+02   3.6248055279E+02   1.2500000000E+02  7.733E-08  -1.
3000002    2    3    0    0    0  -4.1732735256E+01   3.7095015144E+01  -2.4621759983E+02   2.5266730656E+02   1.0000000000E+01  9.538E-11  -1.
3000002    2    3    0    0    0   4.1732735256E+01  -3.7095015144E+01  -9.4028121890E+01   1.0981324623E+02   1.0000000000E+01  1.030E-09  -1.
3000001    1    4    0    0    0  -2.0091306489E+01   1.1392831631E+01  -9.8668899046E+01   1.0134105214E+02   1.0000000000E+00     0.000  -1.
3000022   2   4   0   0   0   -2.1641428767E+01   2.5702183512E+01   -1.4754870078E+02   1.5132625443E+02   2.5000000000E-01   8.015284E-01   0.
3000001    1    5    0    0    0   2.2441268158E+01  -2.6300728384E+01  -5.5645195632E+01   6.5518902822E+01   1.0000000000E+00     0.000  -1.
3000022   2   5   0   0   0   1.9291467098E+01   -1.0794286760E+01   -3.8382926258E+01   4.4294343404E+01   2.5000000000E-01   1.425232E+00   0.
13    1    7    0    0    0  -7.6266797976E+00   9.0689196575E+00  -5.1782150623E+01   5.3120746386E+01   1.0500000000E-01     0.000   1.
-13    1    7    0    0    0  -1.4014748969E+01   1.6633263855E+01  -9.5766550161E+01   9.8205508043E+01   1.0500000000E-01     0.000  -1.
13    1    9    0    0    0   8.3245488657E+00  -4.5972428043E+00  -1.6589158342E+01   1.9121818813E+01   1.0500000000E-01     0.000  -1.
-13    1    9    0    0    0   1.0966918232E+01  -6.1970439557E+00  -2.1793767916E+01   2.5172524591E+01   1.0500000000E-01     0.000   1.
</event>
<event>
 13   1  9.2978750E-05  1.2500000E+02  7.5467720E-03  1.2380620E-01
   21   -1    0    0  502  501   0.0000000000E+00   0.0000000000E+00   3.1117941848E+02   3.1117941848E+02   0.0000000000E+00     0.000  -1.
   21   -1    0    0  501  502   0.0000000000E+00   0.0000000000E+00  -1.2553047432E+01   1.2553047432E+01   0.0000000000E+00     0.000  -1.
   25    2    1    2    0    0   0.0000000000E+00   0.0000000000E+00   2.9862637104E+02   3.2373246591E+02   1.2500000000E+02  1.480E-08  -1.
3000002    2    3    0    0    0  -6.6286689638E+00   6.1142621764E+01   1.3665447878E+02   1.5018923403E+02   1.0000000000E+01  1.949E-10   1.
3000002    2    3    0    0    0   6.6286689638E+00  -6.1142621764E+01   1.6197189226E+02   1.7354323188E+02   1.0000000000E+01  5.586E-10   1.
3000001    1    4    0    0    0  -4.7220911247E+00   9.8049662601E+00   2.4790463554E+01   2.7092482189E+01   1.0000000000E+00     0.000  -1.
3000022   2   4   0   0   0   -1.9065778391E+00   5.1337655504E+01   1.1186401523E+02   1.2309675185E+02   2.5000000000E-01   7.781246E+00   0.
3000001    1    5    0    0    0   1.7674774184E+00  -2.9557195878E+01   9.1165586347E+01   9.5858833388E+01   1.0000000000E+00     0.000   1.
3000022   2   5   0   0   0   4.8611915454E+00   -3.1585425887E+01   7.0806305910E+01   7.7684398487E+01   2.5000000000E-01   3.332754E+00   0.
13    1    7    0    0    0  -6.4231516898E-01   1.8827555950E+01   4.1059066950E+01   4.5174632656E+01   1.0500000000E-01     0.000  -1.
-13    1    7    0    0    0  -1.2642626701E+00   3.2510099554E+01   7.0804948279E+01   7.7922119189E+01   1.0500000000E-01     0.000   1.
13    1    9    0    0    0   1.8107989589E+00  -1.1535001583E+01   2.5985980265E+01   2.8488900466E+01   1.0500000000E-01     0.000  -1.
-13    1    9    0    0    0   3.0503925865E+00  -2.0050424303E+01   4.4820325645E+01   4.9195498022E+01   1.0500000000E-01     0.000   1.
</event>
<event>
 13   1  9.2978750E-05  1.2500000E+02  7.5467720E-03  1.2380620E-01
   21   -1    0    0  502  501   0.0000000000E+00   0.0000000000E+00   5.0442346841E+01   5.0442346841E+01   0.0000000000E+00     0.000  -1.
   21   -1    0    0  501  502   0.0000000000E+00   0.0000000000E+00  -7.7439894150E+01   7.7439894150E+01   0.0000000000E+00     0.000  -1.
   25    2    1    2    0    0   0.0000000000E+00   0.0000000000E+00  -2.6997547309E+01   1.2788224099E+02   1.2500000000E+02  4.636E-08  -1.
3000002    2    3    0    0    0  -4.9980877009E+01   2.1736823908E+01  -4.3073331452E+01   7.0184681111E+01   1.0000000000E+01  4.076E-10   1.
3000002    2    3    0    0    0   4.9980877009E+01  -2.1736823908E+01   1.6075784143E+01   5.7697559879E+01   1.0000000000E+01  9.555E-10   1.
3000001    1    4    0    0    0  -5.6211097654E+00   3.5845369263E+00  -9.5673687217E+00   1.1703859373E+01   1.0000000000E+00     0.000  -1.
3000022   2   4   0   0   0   -4.4359767244E+01   1.8152286982E+01   -3.3505962730E+01   5.8480821737E+01   2.5000000000E-01   2.614894E+01   0.
3000001    1    5    0    0    0   1.3133192825E+01  -8.6462702900E+00   8.3700876061E+00   1.7840883113E+01   1.0000000000E+00     0.000   1.
3000022   2   5   0   0   0   3.6847684184E+01   -1.3090553618E+01   7.7056965367E+00   3.9856676767E+01   2.5000000000E-01   7.295714E+00   0.
13    1    7    0    0    0  -2.4493786887E+01   9.9955587211E+00  -1.8568486245E+01   3.2321146277E+01   1.0500000000E-01     0.000  -1.
-13    1    7    0    0    0  -1.9865980357E+01   8.1567282605E+00  -1.4937476485E+01   2.6159675460E+01   1.0500000000E-01     0.000   1.
13    1    9    0    0    0   2.5461433579E+01  -9.0943995336E+00   5.3139288865E+00   2.7554338460E+01   1.0500000000E-01     0.000   1.
-13    1    9    0    0    0   1.1386250605E+01  -3.9961540843E+00   2.3917676502E+00   1.2302338307E+01   1.0500000000E-01     0.000  -1.
</event>
<event>
 13   1  9.2978750E-05  1.2500000E+02  7.5467720E-03  1.2380620E-01
   21   -1    0    0  502  501   0.0000000000E+00   0.0000000000E+00   9.1970557572E+00   9.1970557572E+00   0.0000000000E+00     0.000  -1.
   21   -1    0    0  501  502   0.0000000000E+00   0.0000000000E+00  -4.2472831558E+02   4.2472831558E+02   0.0000000000E+00     0.000  -1.
   25    2    1    2    0    0   0.0000000000E+00   0.0000000000E+00  -4.1553125982E+02   4.3392537133E+02   1.2500000000E+02  8.689E-08  -1.
3000002    2    3    0    0    0   1.8332366652E+00  -4.6599354885E+01  -6.7554062437E+01   8.2694691390E+01   1.0000000000E+01  1.018E-09   1.
3000002    2    3    0    0    0  -1.8332366652E+00   4.6599354885E+01  -3.4797719738E+02   3.5123067994E+02   1.0000000000E+01  5.047E-10   1.
3000001    1    4    0    0    0   3.6105075484E+00  -6.1174400152E+00  -1.0271713834E+01   1.2528644866E+01   1.0000000000E+00     0.000  -1.
3000022   2   4   0   0   0   -1.7772708832E+00   -4.0481914870E+01   -5.7282348603E+01   7.0166046524E+01   2.5000000000E-01   1.446905E+01   0.
3000001    1    5    0    0    0  -2.1860221443E+00   4.2479887429E+01  -2.8986531366E+02   2.9297136309E+02   1.0000000000E+00     0.000   1.
3000022   2   5   0   0   0   3.5278547912E-01   4.1194674559E+00   -5.8111883727E+01   5.8259316851E+01   2.5000000000E-01   1.576660E+00   0.
13    1    7    0    0    0  -5.5010213070E-01  -1.3714627648E+01  -1.9374769835E+01   2.3744185711E+01   1.0500000000E-01     0.000   1.
-13    1    7    0    0    0  -1.2271687525E+00  -2.6767287222E+01  -3.7907578768E+01   4.6421860814E+01   1.0500000000E-01     0.000  -1.
13    1    9    0    0    0   2.4340409984E-01   2.9006665295E+00  -4.1495789933E+01   4.1597893204E+01   1.0500000000E-01     0.000   1.
-13    1    9    0    0    0   1.0938137928E-01   1.2188009265E+00  -1.6616093794E+01   1.6661423647E+01   1.0500000000E-01     0.000  -1.
</event>
<event>
 13   1  9.2978750E-05  1.2500000E+02  7.5467720E-03  1.2380620E-01
   21   -1    0    0  502  501   0.0000000000E+00   0.0000000000E+00   4.8168528981E+01   4.8168528981E+01   0.0000000000E+00     0.000   1.
   21   -1    0    0  501  502   0.0000000000E+00   0.0000000000E+00  -8.1095480443E+01   8.1095480443E+01   0.0000000000E+00     0.000   1.
   25    2    1    2    0    0   0.0000000000E+00   0.0000000000E+00  -3.2926951462E+01   1.2926400942E+02   1.2500000000E+02  2.379E-08  -1.
3000002    2    3    0    0    0   2.4880695738E+01   4.5704523512E+01  -5.0734541380E+01   7.3361748745E+01   1.0000000000E+01  1.299E-10  -1.
3000002    2    3    0    0    0  -2.4880695738E+01  -4.5704523512E+01   1.7807589918E+01   5.5902260675E+01   1.0000000000E+01  7.489E-10  -1.
3000001    1    4    0    0    0   2.4350216542E+01   4.1225118379E+01  -4.2785780239E+01   6.4218894584E+01   1.0000000000E+00     0.000  -1.
3000022   2   4   0   0   0   5.3047919615E-01   4.4794051336E+00   -7.9487611409E+00   9.1428541607E+00   2.5000000000E-01   6.126613E+00   0.
3000001    1    5    0    0    0  -2.2881977284E+00  -1.3014718605E+01   4.4731358025E+00   1.3986697005E+01   1.0000000000E+00     0.000  -1.
3000022   2   5   0   0   0   -2.2592498009E+01   -3.2689804907E+01   1.3334454116E+01   4.1915563670E+01   2.5000000000E-01   2.849831E+00   0.
13    1    7    0    0    0   1.2773509658E-01   1.4679437681E+00  -2.6502686378E+00   3.0341595234E+00   1.0500000000E-01     0.000  -1.
-13    1    7    0    0    0   4.0274409957E-01   3.0114613656E+00  -5.2984925031E+00   6.1086946372E+00   1.0500000000E-01     0.000   1.
13    1    9    0    0    0  -7.4061854449E+00  -1.0675951399E+01   4.4097398727E+00   1.3721674528E+01   1.0500000000E-01     0.000   1.
-13    1    9    0    0    0  -1.5186312565E+01  -2.2013853508E+01   8.9247142429E+00   2.8193889141E+01   1.0500000000E-01     0.000  -1.
</event>
<event>
 13   1  9.2978750E-05  1.2500000E+02  7.5467720E-03  1.2380620E-01
   21   -1    0    0  502  501   0.0000000000E+00   0.0000000000E+00   9.6123974090E+01   9.6123974090E+01   0.0000000000E+00     0.000   1.
   21   -1    0    0  501  502   0.0000000000E+00   0.0000000000E+00  -4.0637624869E+01   4.0637624869E+01   0.0000000000E+00     0.000   1.
   25    2    1    2    0    0   0.0000000000E+00   0.0000000000E+00   5.5486349221E+01   1.3676159896E+02   1.2500000000E+02  1.001E-08  -1.
3000002    2    3    0    0    0   5.2145614952E+01  -1.2018772097E+01   6.1334388430E+01   8.2009287556E+01   1.0000000000E+01  2.940E-10   1.
3000002    2    3    0    0    0  -5.2145614952E+01   1.2018772097E+01  -5.8480392086E+00   5.4752311404E+01   1.0000000000E+01  1.371E-09   1.
3000001    1    4    0    0    0   3.6341699545E+01  -1.0839874614E+01   3.7176513684E+01   5.3116053855E+01   1.0000000000E+00     0.000   1.
3000022   2   4   0   0   0   1.5803915407E+01   -1.1788974828E+00   2.4157874746E+01   2.8893233701E+01   2.5000000000E-01   6.080570E+00   0.
3000001    1    5    0    0    0  -6.2280114858E+00   4.6933533061E+00  -1.8829696024E+00   8.0846315220E+00   1.0000000000E+00     0.000  -1.
3000022   2   5   0   0   0   -4.5917603466E+01   7.3254187911E+00   -3.9650696061E+00   4.6667679882E+01   2.5000000000E-01   5.249183E-01   0.
13    1    7    0    0    0   7.3640001634E+00  -5.0002915085E-01   1.1167485530E+01   1.3386645794E+01   1.0500000000E-01     0.000   1.
-13    1    7    0    0    0   8.4399152438E+00  -6.7886833192E-01   1.2990389216E+01   1.5506587907E+01   1.0500000000E-01     0.000  -1.
13    1    9    0    0    0  -3.0196515025E+01   4.7614843616E+00  -2.6044728272E+00   3.0680540358E+01   1.0500000000E-01     0.000  -1.
-13    1    9    0    0    0  -1.5721088441E+01   2.5639344295E+00  -1.3605967789E+00   1.5987139523E+01   1.0500000000E-01     0.000   1.
</event>
<event>
 13   1  9.2978750E-05  1.2500000E+02  7.5467720E-03  1.2380620E-01
   21   -1    0    0  502  501   0.0000000000E+00   0.0000000000E+00   9.2161208794E+01   9.2161208794E+01   0.0000000000E+00     0.000   1.
   21   -1    0    0  501  502   0.0000000000E+00   0.0000000000E+00  -4.2384969242E+01   4.2384969242E+01   0.0000000000E+00     0.000   1.
   25    2    1    2    0    0   0.0000000000E+00   0.0000000000E+00   4.9776239552E+01   1.3454617804E+02   1.2500000000E+02  5.690E-08  -1.
3000002    2    3    0    0    0   1.7870596966E+01  -5.3186577273E+01   5.2500294968E+01   7.7488394032E+01   1.0000000000E+01  2.577E-10   1.
3000002    2    3    0    0    0  -1.7870596966E+01   5.3186577273E+01  -2.7240554157E+00   5.7057784008E+01   1.0000000000E+01  4.525E-10   1.
3000001    1    4    0    0    0   1.9715262884E-02  -1.0771171765E+01   1.2332656179E+01   1.6404662091E+01   1.0000000000E+00     0.000  -1.
3000022   2   4   0   0   0   1.7850881703E+01   -4.2415405508E+01   4.0167638788E+01   6.1083731941E+01   2.5000000000E-01   3.871620E+00   0.
3000001    1    5    0    0    0  -1.0843002379E+01   4.0913799970E+01  -5.3393860701E+00   4.2673396539E+01   1.0000000000E+00     0.000   1.
3000022   2   5   0   0   0   -7.0275945873E+00   1.2272777303E+01   2.6153306544E+00   1.4384387469E+01   2.5000000000E-01   1.586492E-01   0.
13    1    7    0    0    0   1.0208974211E+01  -2.4224587647E+01   2.3030629203E+01   3.4949602395E+01   1.0500000000E-01     0.000   1.
-13    1    7    0    0    0   7.6419074920E+00  -1.8190817862E+01   1.7137009585E+01   2.6134129545E+01   1.0500000000E-01     0.000  -1.
13    1    9    0    0    0  -5.2859521992E+00   9.2778141571E+00   1.9738653659E+00   1.0859387444E+01   1.0500000000E-01     0.000  -1.
-13    1    9    0    0    0  -1.7416423881E+00   2.9949631462E+00   6.4146528849E-01   3.5250000243E+00   1.0500000000E-01     0.000   1.
</event>
<event>
 13   1  9.2978750E-05  1.2500000E+02  7.5467720E-03  1.2380620E-01
   21   -1    0    0  502  501   0.0000000000E+00   0.0000000000E+00   3.5026392927E+02   3.5026392927E+02   0.0000000000E+00     0.000   1.
   21   -1    0    0  501  502   0.0000000000E+00   0.0000000000E+00  -1.1152304515E+01   1.1152304515E+01   0.0000000000E+00     0.000   1.
   25    2    1    2    0    0   0.0000000000E+00   0.0000000000E+00   3.3911162476E+02   3.6141623379E+02   1.2500000000E+02  3.172E-08  -1.
3000002    2    3    0    0    0   3.2364310488E+01   4.3702103323E+01   8.5312979553E+01   1.0166428531E+02   1.0000000000E+01  1.870E-09  -1.
3000002    2    3    0    0    0  -3.2364310488E+01  -4.3702103323E+01   2.5379864521E+02   2.5975194848E+02   1.0000000000E+01  8.320E-10  -1.
3000001    1    4    0    0    0   8.3384893804E+00   1.2645193542E+01   1.6381888107E+01   2.2333776726E+01   1.0000000000E+00     0.000   1.
3000022   2   4   0   0   0   2.4025821107E+01   3.1056909781E+01   6.8931091446E+01   7.9330508588E+01   2.5000000000E-01   3.657537E+00   0.
3000001    1    5    0    0    0  -1.3646103074E+01  -2.0855436887E+01   1.3863022560E+02   1.4085632690E+02   1.0000000000E+00     0.000  -1.
3000022   2   5   0   0   0   -1.8718207414E+01   -2.2846666436E+01   1.1516841961E+02   1.1889562158E+02   2.5000000000E-01   4.906551E+00   0.
13    1    7    0    0    0   1.7199376634E+01   2.2281800151E+01   4.9357602841E+01   5.6819725077E+01   1.0500000000E-01     0.000  -1.
-13    1    7    0    0    0   6.8264444739E+00   8.7751096299E+00   1.9573488604E+01   2.2510783512E+01   1.0500000000E-01     0.000   1.
13    1    9    0    0    0  -8.3683280368E+00  -1.0227200365E+01   5.1262642398E+01   5.2938587742E+01   1.0500000000E-01     0.000  -1.
-13    1    9    0    0    0  -1.0349879377E+01  -1.2619466071E+01   6.3905777207E+01   6.5957033836E+01   1.0500000000E-01     0.000   1.
</event>
<event>
 13   1  9.2978750E-05  1.2500000E+02  7.5467720E-03  1.2380620E-01
   21   -1    0    0  502  501   0.0000000000E+00   0.0000000000E+00   2.3994691134E+01   2.3994691134E+01   0.0000000000E+00     0.000   1.
   21   -1    0    0  501  502   0.0000000000E+00   0.0000000000E+00  -1.6279642768E+02   1.6279642768E+02   0.0000000000E+00     0.000   1.
   25    2    1    2    0    0   0.0000000000E+00   0.0000000000E+00  -1.3880173655E+02   1.8679111882E+02   1.2500000000E+02  6.995E-08  -1.
3000002    2    3    0    0    0  -5.0820505401E+01   2.4598002152E+01  -1.0656325563E+02   1.2101038356E+02   1.0000000000E+01  4.889E-10   1.
3000002    2    3    0    0    0   5.0820505401E+01  -2.4598002152E+01  -3.2238480917E+01   6.5780735257E+01   1.0000000000E+01  5.057E-10   1.
3000001    1    4    0    0    0  -1.2858987685E+01   2.3088129222E+00  -2.9058562763E+01   3.1876076472E+01   1.0000000000E+00     0.000  -1.
3000022   2   4   0   0   0   -3.7961517715E+01   2.2289189230E+01   -7.7504692870E+01   8.9134307091E+01   2.5000000000E-01   3.128939E+00   0.
3000001    1    5    0    0    0   4.2701362807E+01  -1.6400683647E+01  -2.6778952036E+01   5.3014159258E+01   1.0000000000E+00     0.000   1.
3000022   2   5   0   0   0   8.1191425934E+00   -8.1973185049E+00   -5.4595288811E+00   1.2766575999E+01   2.5000000000E-01   2.246048E+00   0.
13    1    7    0    0    0  -2.4274298400E+01   1.4231462603E+01  -4.9652574697E+01   5.7071580403E+01   1.0500000000E-01     0.000   1.
-13    1    7    0    0    0  -1.3687219316E+01   8.0577266276E+00  -2.7852118173E+01   3.2062726689E+01   1.0500000000E-01     0.000  -1.
13    1    9    0    0    0   4.9579145392E+00  -4.9519922569E+00  -3.3703241970E+00   7.7764551104E+00   1.0500000000E-01     0.000  -1.
-13    1    9    0    0    0   3.1612280542E+00  -3.2453262480E+00  -2.0892046842E+00   4.9901208882E+00   1.0500000000E-01     0.000   1.
</event>
<event>
 13   1  9.2978750E-05  1.2500000E+02  7.5467720E-03  1.2380620E-01
   21   -1    0    0  502  501   0.0000000000E+00   0.0000000000E+00   3.6668284450E+02   3.6668284450E+02   0.0000000000E+00     0.000  -1.
   21   -1    0    0  501  502   0.0000000000E+00   0.0000000000E+00  -1.0652939069E+01   1.0652939069E+01   0.0000000000E+00     0.000  -1.
   25    2    1    2    0    0   0.0000000000E+00   0.0000000000E+00   3.5602990543E+02   3.7733578357E+02   1.2500000000E+02  4.656E-08  -1.
3000002    2    3    0    0    0   3.4832918296E+01  -4.4158957093E+01   1.0147447852E+02   1.1644919699E+02   1.0000000000E+01  5.139E-10  -1.
3000002    2    3    0    0    0  -3.4832918296E+01   4.4158957093E+01   2.5455542691E+02   2.6088658658E+02   1.0000000000E+01  4.009E-10  -1.
3000001    1    4    0    0    0   1.3710483625E+01  -1.0161734064E+01   2.9643501204E+01   3.4219517297E+01   1.0000000000E+00     0.000  -1.
3000022   2   4   0   0   0   2.1122434671E+01   -3.3997223029E+01   7.1830977318E+01   8.2229679694E+01   2.5000000000E-01   2.347577E+00   0.
3000001    1    5    0    0    0  -9.1882648169E+00   1.5255665576E+01   9.9696705375E+01   1.0127977392E+02   1.0000000000E+00     0.000   1.
3000022   2   5   0   0   0   -2.5644653479E+01   2.8903291517E+01   1.5485872153E+02   1.5960681266E+02   2.5000000000E-01   1.682005E+00   0.
13    1    7    0    0    0   1.5890482863E+01  -2.5531112669E+01   5.3988129497E+01   6.1798659462E+01   1.0500000000E-01     0.000  -1.
-13    1    7    0    0    0   5.2319518083E+00  -8.4661103600E+00   1.7842847821E+01   2.0431020232E+01   1.0500000000E-01     0.000   1.
13    1    9    0    0    0  -7.5955961405E+00   8.5425255659E+00   4.5991281009E+01   4.7390682392E+01   1.0500000000E-01     0.000   1.
-13    1    9    0    0    0  -1.8049057339E+01   2.0360765951E+01   1.0886744052E+02   1.1221613027E+02   1.0500000000E-01     0.000  -1.
</event>
<event>
 13   1  9.2978750E-05  1.2500000E+02  7.5467720E-03  1.2380620E-01
   21   -1    0    0  502  501   0.0000000000E+00   0.0000000000E+00   1.9423074845E+02   1.9423074845E+02   0.0000000000E+00     0.000  -1.
   21   -1    0    0  501  502   0.0000000000E+00   0.0000000000E+00  -2.0111388290E+01   2.0111388290E+01   0.0000000000E+00     0.000  -1.
   25    2    1    2    0    0   0.0000000000E+00   0.0000000000E+00   1.7411936016E+02   2.1434213674E+02   1.2500000000E+02  1.872E-09  -1.
3000002    2    3    0    0    0   4.9947122167E+01  -2.5651468255E+01   4.3223501524E+01   7.1561050302E+01   1.0000000000E+01  2.912E-10  -1.
3000002    2    3    0    0    0  -4.9947122167E+01   2.5651468255E+01   1.3089585864E+02   1.4278108644E+02   1.0000000000E+01  6.691E-10  -1.
3000001    1    4    0    0    0   4.0547149755E+01  -2.2617869972E+01   3.9619384919E+01   6.1043714309E+01   1.0000000000E+00     0.000   1.
3000022   2   4   0   0   0   9.3999724118E+00   -3.0335982822E+00   3.6041166050E+00   1.0517335993E+01   2.5000000000E-01   8.808628E+00   0.
3000001    1    5    0    0    0  -4.0638598848E+01   2.0860020383E+01   1.1501509196E+02   1.2375826254E+02   1.0000000000E+00     0.000  -1.
3000022   2   5   0   0   0   -9.3085233185E+00   4.7914478718E+00   1.5880766674E+01   1.9022823903E+01   2.5000000000E-01   8.088086E-02   0.
13    1    7    0    0    0   3.7864294438E+00  -1.2466884919E+00   1.3921089046E+00   4.2237746544E+00   1.0500000000E-01     0.000  -1.
-13    1    7    0    0    0   5.6135429681E+00  -1.7869097903E+00   2.2120077004E+00   6.2935613384E+00   1.0500000000E-01     0.000   1.
13    1    9    0    0    0  -5.3870584763E+00   2.7153043776E+00   9.0769286738E+00   1.0899308971E+01   1.0500000000E-01     0.000  -1.
-13    1    9    0    0    0  -3.9214648423E+00   2.0761434942E+00   6.8038380000E+00   8.1235149318E+00   1.0500000000E-01     0.000   1.
</event>
<event>
 13   1  9.2978750E-05  1.2500000E+02  7.5467720E-03  1.2380620E-01
   21   -1    0    0  502  501   0.0000000000E+00   0.0000000000E+00   1.3815748655E+01   1.3815748655E+01   0.0000000000E+00     0.000  -1.
   21   -1    0    0  501  502   0.0000000000E+00   0.0000000000E+00  -2.8273893060E+02   2.8273893060E+02   0.0000000000E+00     0.000  -1.
   25    2    1    2    0    0   0.0000000000E+00   0.0000000000E+00  -2.6892318194E+02   2.9655467925E+02   1.2500000000E+02  3.084E-08  -1.
3000002    2    3    0    0    0   1.1390378991E+01   1.6191305897E+01   4.1657340061E+00   2.2566622699E+01   1.0000000000E+01  5.973E-10   1.
3000002    2    3    0    0    0  -1.1390378991E+01  -1.6191305897E+01  -2.7308891595E+02   2.7398805655E+02   1.0000000000E+01  1.625E-09   1.
3000001    1    4    0    0    0   6.2292953278E+00   1.3485506922E+01  -7.9509893185E-01   1.4909567383E+01   1.0000000000E+00     0.000   1.
3000022   2   4   0   0   0   5.1610836631E+00   2.7057989748E+00   4.9608329380E+00   7.6570553157E+00   2.5000000000E-01   1.724353E+00   0.
3000001    1    5    0    0    0  -4.6614165430E+00  -1.4301867486E+01  -1.7338902602E+02   1.7404317442E+02   1.0000000000E+00     0.000   1.
3000022   2   5   0   0   0   -6.7289624479E+00   -1.8894384113E+00   -9.9699889930E+01   9.9944882136E+01   2.5000000000E-01   3.487811E+00   0.
13    1    7    0    0    0   2.8568832345E+00   1.4245261185E+00   2.7373690383E+00   4.2065747028E+00   1.0500000000E-01     0.000  -1.
-13    1    7    0    0    0   2.3042004286E+00   1.2812728563E+00   2.2234638997E+00   3.4504806130E+00   1.0500000000E-01     0.000   1.
13    1    9    0    0    0  -3.5904864787E+00  -9.8785107745E-01  -5.4036582123E+01   5.4164847230E+01   1.0500000000E-01     0.000  -1.
-13    1    9    0    0    0  -3.1384759692E+00  -9.0158733390E-01  -4.5663307807E+01   4.5780034906E+01   1.0500000000E-01     0.000   1.
</event>
<event>
 13   1  9.2978750E-05  1.2500000E+02  7.5467720E-03  1.2380620E-01
   21   -1    0    0  502  501   0.0000000000E+00   0.0000000000E+00   6.2009039646E+02   6.2009039646E+02   0.0000000000E+00     0.000   1.
   21   -1    0    0  501  502   0.0000000000E+00   0.0000000000E+00  -6.2994847563E+00   6.2994847563E+00   0.0000000000E+00     0.000   1.
   25    2    1    2    0    0   0.0000000000E+00   0.0000000000E+00   6.1379091170E+02   6.2638988121E+02   1.2500000000E+02  4.610E-08  -1.
3000002    2    3    0    0    0  -3.5166292467E+01  -2.3107686596E+01   5.3298616829E+02   5.3473814984E+02   1.0000000000E+01  4.604E-10  -1.
3000002    2    3    0    0    0   3.5166292467E+01   2.3107686596E+01   8.0804743414E+01   9.1651731374E+01   1.0000000000E+01  8.026E-11  -1.
3000001    1    4    0    0    0  -3.2364155489E+01  -1.9029767680E+01   4.9628752594E+02   4.9770661943E+02   1.0000000000E+00     0.000  -1.
3000022   2   4   0   0   0   -2.8021369780E+00   -4.0779189167E+00   3.6698642343E+01   3.7031530405E+01   2.5000000000E-01   4.211934E+00   0.
3000001    1    5    0    0    0   7.1497277100E+00   9.8112769448E-01   1.7831194923E+01   1.9262209901E+01   1.0000000000E+00     0.000   1.
3000022   2   5   0   0   0   2.8016564757E+01   2.2126558902E+01   6.2973548491E+01   7.2389521473E+01   2.5000000000E-01   3.618449E+00   0.
13    1    7    0    0    0  -7.7491783654E-01  -1.0771316009E+00   9.7067748561E+00   9.7976126299E+00   1.0500000000E-01     0.000  -1.
-13    1    7    0    0    0  -2.0272191414E+00  -3.0007873158E+00   2.6991867487E+01   2.7233917775E+01   1.0500000000E-01     0.000   1.
13    1    9    0    0    0   8.3809071825E+00   6.5644983532E+00   1.8809662347E+01   2.1613575975E+01   1.0500000000E-01     0.000  -1.
-13    1    9    0    0    0   1.9635657574E+01   1.5562060548E+01   4.4163886144E+01   5.0775945498E+01   1.0500000000E-01     0.000   1.
</event>
<event>
 13   1  9.2978750E-05  1.2500000E+02  7.5467720E-03  1.2380620E-01
   21   -1    0    0  502  501   0.0000000000E+00   0.0000000000E+00   1.1001641126E+02   1.1001641126E+02   0.0000000000E+00     0.000  -1.
   21   -1    0    0  501  502   0.0000000000E+00   0.0000000000E+00  -3.5506066369E+01   3.5506066369E+01   0.0000000000E+00     0.000  -1.
   25    2    1    2    0    0   0.0000000000E+00   0.0000000000E+00   7.4510344893E+01   1.4552247763E+02   1.2500000000E+02  2.053E-08  -1.
3000002    2    3    0    0    0   2.2923846256E+00   5.6324747096E+01   8.0688839523E+00   5.7817290242E+01   1.0000000000E+01  4.183E-11  -1.
3000002    2    3    0    0    0  -2.2923846256E+00  -5.6324747096E+01   6.6441460941E+01   8.7705187388E+01   1.0000000000E+01  6.960E-10  -1.
3000001    1    4    0    0    0  -3.5906896849E+00   1.4716844485E+01   1.1050545410E+00   1.5221685503E+01   1.0000000000E+00     0.000  -1.
3000022   2   4   0   0   0   5.8830743105E+00   4.1607902612E+01   6.9638294113E+00   4.2595604740E+01   2.5000000000E-01   4.022100E+00   0.
3000001    1    5    0    0    0   1.1040182133E-01  -2.0115787624E-01   7.5594015207E-01   1.2744012582E+00   1.0000000000E+00     0.000  -1.
3000022   2   5   0   0   0   -2.4027864469E+00   -5.6123589220E+01   6.5685520789E+01   8.6430786129E+01   2.5000000000E-01   1.685588E+00   0.
13    1    7    0    0    0   3.3225093943E+00   2.3558239679E+01   3.8765529744E+00   2.4105360678E+01   1.0500000000E-01     0.000  -1.
-13    1    7    0    0    0   2.5605649162E+00   1.8049662932E+01   3.0872764370E+00   1.8490244062E+01   1.0500000000E-01     0.000   1.
13    1    9    0    0    0  -1.7158996564E+00  -3.9304706271E+01   4.5954071410E+01   6.0494561333E+01   1.0500000000E-01     0.000  -1.
-13    1    9    0    0    0  -6.8688679055E-01  -1.6818882949E+01   1.9731449379E+01   2.5936224797E+01   1.0500000000E-01     0.000   1.
</event>
<event>
 13   1  9.2978750E-05  1.2500000E+02  7.5467720E-03  1.2380620E-01
   21   -1    0    0  502  501   0.0000000000E+00   0.0000000000E+00   1.0527251833E+03   1.0527251833E+03   0.0000000000E+00     0.000   1.
   21   -1    0    0  501  502   0.0000000000E+00   0.0000000000E+00  -3.7106075373E+00   3.7106075373E+00   0.0000000000E+00     0.000   1.
   25    2    1    2    0    0   0.0000000000E+00   0.0000000000E+00   1.0490145758E+03   1.0564357909E+03   1.2500000000E+02  4.145E-08  -1.
3000002    2    3    0    0    0   5.5231002191E+01   2.6475000403E+01   5.8710580113E+02   5.9037666872E+02   1.0000000000E+01  6.467E-11   1.
3000002    2    3    0    0    0  -5.5231002191E+01  -2.6475000403E+01   4.6190877467E+02   4.6605912218E+02   1.0000000000E+01  9.918E-10   1.
3000001    1    4    0    0    0   1.0403056350E+01   8.3391528596E+00   1.5408548191E+02   1.5466447810E+02   1.0000000000E+00     0.000  -1.
3000022   2   4   0   0   0   4.4827945841E+01   1.8135847544E+01   4.3302031922E+02   4.3571219061E+02   2.5000000000E-01   6.113341E+00   0.
3000001    1    5    0    0    0  -1.5659152303E+00   3.8903116985E-01   2.0818967905E+01   2.0905330909E+01   1.0000000000E+00     0.000   1.
3000022   2   5   0   0   0   -5.3665086960E+01   -2.6864031573E+01   4.4108980677E+02   4.4515379127E+02   2.5000000000E-01   3.365589E+00   0.
13    1    7    0    0    0   2.1677376113E+01   8.7179965087E+00   2.0964957255E+02   2.1094754417E+02   1.0500000000E-01     0.000   1.
-13    1    7    0    0    0   2.3150569728E+01   9.4178510350E+00   2.2337074667E+02   2.2476464644E+02   1.0500000000E-01     0.000  -1.
13    1    9    0    0    0  -3.6347623935E+01  -1.8246039498E+01   2.9874361427E+02   3.0149929654E+02   1.0500000000E-01     0.000   1.
-13    1    9    0    0    0  -1.7317463026E+01  -8.6179920749E+00   1.4234619250E+02   1.4365449473E+02   1.0500000000E-01     0.000  -1.
</event>
<event>
 13   1  9.2978750E-05  1.2500000E+02  7.5467720E-03  1.2380620E-01
   21   -1    0    0  502  501   0.0000000000E+00   0.0000000000E+00   4.4897262338E+02   4.4897262338E+02   0.0000000000E+00     0.000  -1.
   21   -1    0    0  501  502   0.0000000000E+00   0.0000000000E+00  -8.7004191271E+00   8.7004191271E+00   0.0000000000E+00     0.000  -1.
   25    2    1    2    0    0   0.0000000000E+00   0.0000000000E+00   4.4027220425E+02   4.5767304251E+02   1.2500000000E+02  3.913E-08  -1.
3000002    2    3    0    0    0  -5.0366506711E+01  -1.4018991833E+01   1.0020506342E+02   1.1346528926E+02   1.0000000000E+01  7.047E-10  -1.
3000002    2    3    0    0    0   5.0366506711E+01   1.4018991833E+01   3.4006714083E+02   3.4420775325E+02   1.0000000000E+01  3.225E-10  -1.
3000001    1    4    0    0    0  -1.5726267551E+01  -9.1503711302E+00   3.2677495219E+01   3.7414749454E+01   1.0000000000E+00     0.000   1.
3000022   2   4   0   0   0   -3.4640239160E+01   -4.8686207024E+00   6.7527568206E+01   7.6050539803E+01   2.5000000000E-01   3.875105E+00   0.
3000001    1    5    0    0    0   2.3636607411E+01   1.5302997794E+00   1.5586769974E+02   1.5766030207E+02   1.0000000000E+00     0.000   1.
3000022   2   5   0   0   0   2.6729899300E+01   1.2488692053E+01   1.8419944109E+02   1.8654745118E+02   2.5000000000E-01   3.739648E+00   0.
13    1    7    0    0    0  -1.5217364563E+01  -2.0865329586E+00   2.9740282645E+01   3.3472634209E+01   1.0500000000E-01     0.000   1.
-13    1    7    0    0    0  -1.9422874597E+01  -2.7820877438E+00   3.7787285560E+01   4.2577905595E+01   1.0500000000E-01     0.000  -1.
13    1    9    0    0    0   1.4083106794E+01   6.6018051050E+00   9.7513985853E+01   9.8746676853E+01   1.0500000000E-01     0.000   1.
-13    1    9    0    0    0   1.2646792507E+01   5.8868869482E+00   8.6685455235E+01   8.7800774330E+01   1.0500000000E-01     0.000  -1.
</event>
<event>
 13   1  9.2978750E-05  1.2500000E+02  7.5467720E-03  1.2380620E-01
   21   -1    0    0  502  501   0.0000000000E+00   0.0000000000E+00   1.6020420248E+01   1.6020420248E+01   0.0000000000E+00     0.000   1.
   21   -1    0    0  501  502   0.0000000000E+00   0.0000000000E+00  -2.4382943390E+02   2.4382943390E+02   0.0000000000E+00     0.000   1.
   25    2    1    2    0    0   0.0000000000E+00   0.0000000000E+00  -2.2780901365E+02   2.5984985415E+02   1.2500000000E+02  5.860E-08  -1.
3000002    2    3    0    0    0   3.9587370089E+01  -3.9571615740E+01  -5.9968695699E+01   8.2639682397E+01   1.0000000000E+01  1.250E-09  -1.
3000002    2    3    0    0    0  -3.9587370089E+01   3.9571615740E+01  -1.6784031795E+02   1.7721017175E+02   1.0000000000E+01  1.025E-10  -1.
3000001    1    4    0    0    0   1.0838741420E+01  -1.0533740851E+01  -1.0276754199E+01   1.8304362561E+01   1.0000000000E+00     0.000  -1.
3000022   2   4   0   0   0   2.8748628669E+01   -2.9037874889E+01   -4.9691941499E+01   6.4335319836E+01   2.5000000000E-01   3.930261E+01   0.
3000001    1    5    0    0    0  -2.2754856423E+01   2.7115571572E+01  -1.1649544966E+02   1.2175889086E+02   1.0000000000E+00     0.000  -1.
3000022   2   5   0   0   0   -1.6832513666E+01   1.2456044168E+01   -5.1344868296E+01   5.5451280896E+01   2.5000000000E-01   2.229878E+00   0.
13    1    7    0    0    0   1.9442383159E+01  -1.9566079995E+01  -3.3526035965E+01   4.3414788515E+01   1.0500000000E-01     0.000   1.
-13    1    7    0    0    0   9.3062455095E+00  -9.4717948939E+00  -1.6165905534E+01   2.0920531320E+01   1.0500000000E-01     0.000  -1.
13    1    9    0    0    0  -6.6237166201E+00   4.8242439719E+00  -2.0090309918E+01   2.1697431400E+01   1.0500000000E-01     0.000   1.
-13    1    9    0    0    0  -1.0208797046E+01   7.6318001961E+00  -3.1254558378E+01   3.3753849496E+01   1.0500000000E-01     0.000  -1.
</event>
<event>
 13   1  9.2978750E-05  1.2500000E+02  7.5467720E-03  1.2380620E-01
   21   -1    0    0  502  501   0.0000000000E+00   0.0000000000E+00   6.7616996893E+00   6.7616996893E+00   0.0000000000E+00     0.000   1.
   21   -1    0    0  501  502   0.0000000000E+00   0.0000000000E+00  -5.7770237950E+02   5.7770237950E+02   0.0000000000E+00     0.000   1.
   25    2    1    2    0    0   0.0000000000E+00   0.0000000000E+00  -5.7094067981E+02   5.8446407919E+02   1.2500000000E+02  2.741E-09  -1.
3000002    2    3    0    0    0   5.5324551290E+01   2.6873831973E+01  -2.6292914681E+02   2.7021240731E+02   1.0000000000E+01  8.852E-12  -1.
3000002    2    3    0    0    0  -5.5324551290E+01  -2.6873831973E+01  -3.0801153300E+02   3.1425167188E+02   1.0000000000E+01  1.324E-10  -1.
3000001    1    4    0    0    0   5.0840602940E+01   2.7442347206E+01  -2.4463255679E+02   2.5136415251E+02   1.0000000000E+00     0.000  -1.
3000022   2   4   0   0   0   4.4839483499E+00   -5.6851523344E-01   -1.8296590024E+01   1.8848254797E+01   2.5000000000E-01   5.147519E+00   0.
3000001    1    5    0    0    0  -3.4029429292E+01  -1.8550174802E+01  -1.7052913067E+02   1.7488080355E+02   1.0000000000E+00     0.000   1.
3000022   2   5   0   0   0   -2.1295121998E+01   -8.3236571712E+00   -1.3748240232E+02   1.3937086833E+02   2.5000000000E-01   3.632589E+00   0.
13    1    7    0    0    0   1.1107621561E+00  -1.2745202980E-01  -4.4517411106E+00   4.5911937993E+00   1.0500000000E-01     0.000  -1.
-13    1    7    0    0    0   3.3731861938E+00  -4.4106320364E-01  -1.3844848913E+01   1.4257060997E+01   1.0500000000E-01     0.000   1.
13    1    9    0    0    0  -1.1302440013E+01  -4.4895307297E+00  -7.3177817361E+01   7.4181567894E+01   1.0500000000E-01     0.000  -1.
-13    1    9    0    0    0  -9.9926819847E+00  -3.8341264414E+00  -6.4304584963E+01   6.5189300434E+01   1.0500000000E-01     0.000   1.
</event>
<event>
 13   1  9.2978750E-05  1.2500000E+02  7.5467720E-03  1.2380620E-01
   21   -1    0    0  502  501   0.0000000000E+00   0.0000000000E+00   1.6307430975E+02   1.6307430975E+02   0.0000000000E+00     0.000  -1.
   21   -1    0    0  501  502   0.0000000000E+00   0.0000000000E+00  -2.3953803674E+01   2.3953803674E+01   0.0000000000E+00     0.000  -1.
   25    2    1    2    0    0   0.0000000000E+00   0.0000000000E+00   1.3912050607E+02   1.8702811342E+02   1.2500000000E+02  1.119E-08  -1.
3000002    2    3    0    0    0  -9.1573038801E-01   5.1365043599E+01   1.8446185122E+01   5.5492954613E+01   1.0000000000E+01  2.518E-10   1.
3000002    2    3    0    0    0   9.1573038801E-01  -5.1365043599E+01   1.2067432095E+02   1.3153515881E+02   1.0000000000E+01  4.092E-10   1.
3000001    1    4    0    0    0   3.3644542821E+00   2.9445371526E+01   7.3387910621E+00   3.0548442041E+01   1.0000000000E+00     0.000   1.
3000022   2   4   0   0   0   -4.2801846701E+00   2.1919672074E+01   1.1107394060E+01   2.4944512572E+01   2.5000000000E-01   7.606499E-01   0.
3000001    1    5    0    0    0  -2.5331559383E+00  -2.7763302626E+01   5.5151260141E+01   6.1805172492E+01   1.0000000000E+00     0.000   1.
3000022   2   5   0   0   0   3.4488863264E+00   -2.3601740973E+01   6.5523060808E+01   6.9729986315E+01   2.5000000000E-01   8.911628E+00   0.
13    1    7    0    0    0  -2.1035543598E+00   1.0807011088E+01   5.4002620545E+00   1.2263371676E+01   1.0500000000E-01     0.000  -1.
-13    1    7    0    0    0  -2.1766303103E+00   1.1112660986E+01   5.7071320053E+00   1.2681140896E+01   1.0500000000E-01     0.000   1.
13    1    9    0    0    0   1.7203056817E+00  -1.1466555308E+01   3.2001188208E+01   3.4037162250E+01   1.0500000000E-01     0.000  -1.
-13    1    9    0    0    0   1.7285806446E+00  -1.2135185666E+01   3.3521872599E+01   3.5692824065E+01   1.0500000000E-01     0.000   1.
</event>
<event>
 13   1  9.2978750E-05  1.2500000E+02  7.5467720E-03  1.2380620E-01
   21   -1    0    0  502  501   0.0000000000E+00   0.0000000000E+00   1.9735848973E+02   1.9735848973E+02   0.0000000000E+00     0.000  -1.
   21   -1    0    0  501  502   0.0000000000E+00   0.0000000000E+00  -1.9792662608E+01   1.9792662608E+01   0.0000000000E+00     0.000  -1.
   25    2    1    2    0    0   0.0000000000E+00   0.0000000000E+00   1.7756582712E+02   2.1715115233E+02   1.2500000000E+02  6.407E-08  -1.
3000002    2    3    0    0    0   5.7237847499E+01  -2.2190195636E+01   7.8120066781E+01   9.9856501053E+01   1.0000000000E+01  9.920E-10  -1.
3000002    2    3    0    0    0  -5.7237847499E+01   2.2190195636E+01   9.9445760339E+01   1.1729465128E+02   1.0000000000E+01  3.572E-10  -1.
3000001    1    4    0    0    0   2.1010422772E+01  -5.4335233564E+00   3.4115917447E+01   4.0445727393E+01   1.0000000000E+00     0.000   1.
3000022   2   4   0   0   0   3.6227424727E+01   -1.6756672280E+01   4.4004149334E+01   5.9410773660E+01   2.5000000000E-01   5.503581E+00   0.
3000001    1    5    0    0    0  -1.1152894362E+01   2.1633588672E+00   2.4987113805E+01   2.7466762288E+01   1.0000000000E+00     0.000  -1.
3000022   2   5   0   0   0   -4.6084953137E+01   2.0026836769E+01   7.4458646534E+01   8.9827888989E+01   2.5000000000E-01   2.473737E+00   0.
13    1    7    0    0    0   2.1019027724E+01  -9.6507820117E+00   2.5502138033E+01   3.4428290535E+01   1.0500000000E-01     0.000   1.
-13    1    7    0    0    0   1.5208397003E+01  -7.1058902681E+00   1.8502011301E+01   2.4982483125E+01   1.0500000000E-01     0.000  -1.
13    1    9    0    0    0  -2.9767518016E+01   1.2924776833E+01   4.8188634532E+01   5.8097422559E+01   1.0500000000E-01     0.000   1.
-13    1    9    0    0    0  -1.6317435121E+01   7.1020599357E+00   2.6270012002E+01   3.1730466429E+01   1.0500000000E-01     0.000  -1.
</event>
<event>
 13   1  9.2978750E-05  1.2500000E+02  7.5467720E-03  1.2380620E-01
   21   -1    0    0  502  501   0.0000000000E+00   0.0000000000E+00   1.4807373093E+02   1.4807373093E+02   0.0000000000E+00     0.000  -1.
   21   -1    0    0  501  502   0.0000000000E+00   0.0000000000E+00  -2.6380438822E+01   2.6380438822E+01   0.0000000000E+00     0.000  -1.
   25    2    1    2    0    0   0.0000000000E+00   0.0000000000E+00   1.2169329211E+02   1.7445416975E+02   1.2500000000E+02  1.876E-07  -1.
3000002    2    3    0    0    0  -3.5816869447E+00  -3.1305185150E+01   1.3487321410E+02   1.3886549961E+02   1.0000000000E+01  1.270E-09   1.
3000002    2    3    0    0    0   3.5816869447E+00   3.1305185150E+01  -1.3179921994E+01   3.5588670142E+01   1.0000000000E+01  4.158E-10   1.
3000001    1    4    0    0    0   3.1721830790E+00  -9.0334123954E+00   4.5888082436E+01   4.6886900032E+01   1.0000000000E+00     0.000  -1.
3000022   2   4   0   0   0   -6.7538700237E+00   -2.2271772755E+01   8.8985131668E+01   9.1978599576E+01   2.5000000000E-01   1.811998E+00   0.
3000001    1    5    0    0    0  -1.3036284008E+00   2.4735841706E+01  -8.8396976532E+00   2.6319224277E+01   1.0000000000E+00     0.000   1.
3000022   2   5   0   0   0   4.8853153455E+00   6.5693434442E+00   -4.3402243411E+00   9.2694458650E+00   2.5000000000E-01   8.573577E+00   0.
13    1    7    0    0    0  -3.1079539101E+00  -1.0146379582E+01   4.0810923131E+01   4.2168126208E+01   1.0500000000E-01     0.000  -1.
-13    1    7    0    0    0  -3.6459161136E+00  -1.2125393173E+01   4.8174208538E+01   4.9810473368E+01   1.0500000000E-01     0.000   1.
13    1    9    0    0    0   3.2734950576E+00   4.4794522958E+00  -2.9655112268E+00   6.2917838964E+00   1.0500000000E-01     0.000  -1.
-13    1    9    0    0    0   1.6118202879E+00   2.0898911484E+00  -1.3747131143E+00   2.9776619686E+00   1.0500000000E-01     0.000   1.
</event>
<event>
 13   1  9.2978750E-05  1.2500000E+02  7.5467720E-03  1.2380620E-01
   21   -1    0    0  502  501   0.0000000000E+00   0.0000000000E+00   2.5660057286E+01   2.5660057286E+01   0.0000000000E+00     0.000  -1.
   21   -1    0    0  501  502   0.0000000000E+00   0.0000000000E+00  -1.5223075913E+02   1.5223075913E+02   0.0000000000E+00     0.000  -1.
   25    2    1    2    0    0   0.0000000000E+00   0.0000000000E+00  -1.2657070185E+02   1.7789081642E+02   1.2500000000E+02  2.201E-09  -1.
3000002    2    3    0    0    0  -2.2714291021E+01  -1.4318253633E+01   1.5762872915E+01   3.2701981075E+01   1.0000000000E+01  7.683E-10   1.
3000002    2    3    0    0    0   2.2714291021E+01   1.4318253633E+01  -1.4233357476E+02   1.4518883535E+02   1.0000000000E+01  8.491E-11   1.
3000001    1    4    0    0    0  -8.5992913858E+00  -4.1905375390E+00   5.9191035763E-01   9.6363258078E+00   1.0000000000E+00     0.000  -1.
3000022   2   4   0   0   0   -1.4114999635E+01   -1.0127716094E+01   1.5170962557E+01   2.3065655267E+01   2.5000000000E-01   1.334949E+00   0.
3000001    1    5    0    0    0   1.1324779864E+01   1.4955814252E+00  -5.3643829129E+01   5.4855699853E+01   1.0000000000E+00     0.000  -1.
3000022   2   5   0   0   0   1.1389511157E+01   1.2822672207E+01   -8.8689745636E+01   9.0333135492E+01   2.5000000000E-01   5.344271E+00   0.
13    1    7    0    0    0  -6.0903413794E+00  -4.4236617116E+00   6.5083113265E+00   9.9513909771E+00   1.0500000000E-01     0.000   1.
-13    1    7    0    0    0  -8.0246582560E+00  -5.7040543820E+00   8.6626512306E+00   1.3114264290E+01   1.0500000000E-01     0.000  -1.
13    1    9    0    0    0   4.2313986722E+00   4.8039331229E+00  -3.3390150345E+01   3.3998465748E+01   1.0500000000E-01     0.000   1.
-13    1    9    0    0    0   7.1581124851E+00   8.0187390845E+00  -5.5299595291E+01   5.6334669744E+01   1.0500000000E-01     0.000  -1.
</event>
<event>
 13   1  9.2978750E-05  1.2500000E+02  7.5467720E-03  1.2380620E-01
   21   -1    0    0  502  501   0.0000000000E+00   0.0000000000E+00   2.5456242827E+01   2.5456242827E+01   0.0000000000E+00     0.000   1.
   21   -1    0    0  501  502   0.0000000000E+00   0.0000000000E+00  -1.5344958903E+02   1.5344958903E+02   0.0000000000E+00     0.000   1.
   25    2    1    2    0    0   0.0000000000E+00   0.0000000000E+00  -1.2799334620E+02   1.7890583186E+02   1.2500000000E+02  1.164E-08  -1.
3000002    2    3    0    0    0   4.6839132203E+01   9.0934389930E+00  -1.1997388182E+02   1.2950029829E+02   1.0000000000E+01  7.623E-10  -1.
3000002    2    3    0    0    0  -4.6839132203E+01  -9.0934389930E+00  -8.0194643786E+00   4.9405533569E+01   1.0000000000E+01  2.782E-09  -1.
3000001    1    4    0    0    0   1.0227551144E-01   3.9113896406E-01  -1.5333560376E+00   1.8747348366E+00   1.0000000000E+00     0.000  -1.
3000022   2   4   0   0   0   4.6736856692E+01   8.7023000290E+00   -1.1844052578E+02   1.2762556345E+02   2.5000000000E-01   8.953480E+00   0.
3000001    1    5    0    0    0  -4.5787007709E+01  -1.0470107891E+01  -7.9936928356E+00   4.7654720221E+01   1.0000000000E+00     0.000  -1.
3000022   2   5   0   0   0   -1.0521244945E+00   1.3766688979E+00   -2.5771543018E-02   1.7508133478E+00   2.5000000000E-01   2.597214E+00   0.
13    1    7    0    0    0   1.2490565879E+01   2.3124938029E+00  -3.1561581880E+01   3.4022144837E+01   1.0500000000E-01     0.000  -1.
-13    1    7    0    0    0   3.4246290813E+01   6.3898062261E+00  -8.6878943904E+01   9.3603418618E+01   1.0500000000E-01     0.000   1.
13    1    9    0    0    0  -7.9720321117E-01   9.8925980028E-01  -4.4002529817E-03   1.2748381366E+00   1.0500000000E-01     0.000  -1.
-13    1    9    0    0    0  -2.5492128334E-01   3.8740909763E-01  -2.1371290036E-02   4.7597521119E-01   1.0500000000E-01     0.000   1.
</event>
<event>
 13   1  9.2978750E-05  1.2500000E+02  7.5467720E-03  1.2380620E-01
   21   -1    0    0  502  501   0.0000000000E+00   0.0000000000E+00   1.2448988258E+01   1.2448988258E+01   0.0000000000E+00     0.000   1.
   21   -1    0    0  501  502   0.0000000000E+00   0.0000000000E+00  -3.1378051927E+02   3.1378051927E+02   0.0000000000E+00     0.000   1.
   25    2    1    2    0    0   0.0000000000E+00   0.0000000000E+00  -3.0133153102E+02   3.2622950753E+02   1.2500000000E+02  1.184E-08  -1.
3000002    2    3    0    0    0  -3.3261572739E+01  -3.4579985610E+01  -2.5188375359E+02   2.5660774140E+02   1.0000000000E+01  2.557E-10   1.
3000002    2    3    0    0    0   3.3261572739E+01   3.4579985610E+01  -4.9447777433E+01   6.9621766129E+01   1.0000000000E+01  4.902E-10   1.
3000001    1    4    0    0    0  -6.9266989701E+00  -1.2797021597E+01  -8.7677381849E+01   8.8882316623E+01   1.0000000000E+00     0.000  -1.
3000022   2   4   0   0   0   -2.6334873769E+01   -2.1782964013E+01   -1.6420637174E+02   1.6772542478E+02   2.5000000000E-01   9.736116E-01   0.
3000001    1    5    0    0    0   1.3004386060E+01   1.6906665559E+01  -1.5854580132E+01   2.6595433974E+01   1.0000000000E+00     0.000   1.
3000022   2   5   0   0   0   2.0257186679E+01   1.7673320051E+01   -3.3593197301E+01   4.3026332155E+01   2.5000000000E-01   8.170473E+00   0.
13    1    7    0    0    0  -1.1486418565E+01  -9.5853380252E+00  -7.1937624212E+01   7.3476862472E+01   1.0500000000E-01     0.000  -1.
-13    1    7    0    0    0  -1.4848455203E+01  -1.2197625988E+01  -9.2268747527E+01   9.4248562306E+01   1.0500000000E-01     0.000   1.
13    1    9    0    0    0   1.1235462432E+01   9.7816983315E+00  -1.8511631691E+01   2.3761497663E+01   1.0500000000E-01     0.000  -1.
-13    1    9    0    0    0   9.0217242467E+00   7.8916217195E+00  -1.5081565610E+01   1.9264834492E+01   1.0500000000E-01     0.000   1.
</event>
<event>
 13   1  9.2978750E-05  1.2500000E+02  7.5467720E-03  1.2380620E-01
   21   -1    0    0  502  501   0.0000000000E+00   0.0000000000E+00   1.6729079211E+02   1.6729079211E+02   0.0000000000E+00     0.000   1.
   21   -1    0    0  501  502   0.0000000000E+00   0.0000000000E+00  -2.3350059801E+01   2.3350059801E+01   0.0000000000E+00     0.000   1.
   25    2    1    2    0    0   0.0000000000E+00   0.0000000000E+00   1.4394073231E+02   1.9064085191E+02   1.2500000000E+02  3.506E-08  -1.
3000002    2    3    0    0    0  -4.3612923646E+01  -3.4810445346E+01   1.1210166030E+02   1.2562100324E+02   1.0000000000E+01  2.379E-10  -1.
3000002    2    3    0    0    0   4.3612923646E+01   3.4810445346E+01   3.1839072012E+01   6.5019848667E+01   1.0000000000E+01  6.084E-10  -1.
3000001    1    4    0    0    0  -2.2801261723E+01  -2.4057030648E+01   6.1927384092E+01   7.0246986841E+01   1.0000000000E+00     0.000  -1.
3000022   2   4   0   0   0   -2.0811661923E+01   -1.0753414698E+01   5.0174276207E+01   5.5374016402E+01   2.5000000000E-01   8.612436E+00   0.
3000001    1    5    0    0    0   1.2078944584E+01   1.1641510988E+01   1.4591442272E+01   2.2256142252E+01   1.0000000000E+00     0.000  -1.
3000022   2   5   0   0   0   3.1533979061E+01   2.3168934358E+01   1.7247629740E+01   4.2763706415E+01   2.5000000000E-01   3.126437E+00   0.
13    1    7    0    0    0  -1.4467798100E+01  -7.4627855230E+00   3.4974626445E+01   3.8577789849E+01   1.0500000000E-01     0.000  -1.
-13    1    7    0    0    0  -6.3438638227E+00  -3.2906291751E+00   1.5199649761E+01   1.6796226554E+01   1.0500000000E-01     0.000   1.
13    1    9    0    0    0   1.4810252808E+01   1.0959463324E+01   8.1476979688E+00   2.0145705045E+01   1.0500000000E-01     0.000  -1.
-13    1    9    0    0    0   1.6723726254E+01   1.2209471034E+01   9.0999317709E+00   2.2618001370E+01   1.0500000000E-01     0.000   1.
</event>
<event>
 13   1  9.2978750E-05  1.2500000E+02  7.5467720E-03  1.2380620E-01
   21   -1    0    0  502  501   0.0000000000E+00   0.0000000000E+00   5.1839162613E+01   5.1839162613E+01   0.0000000000E+00     0.000  -1.
   21   -1    0    0  501  502   0.0000000000E+00   0.0000000000E+00  -7.5353261956E+01   7.5353261956E+01   0.0000000000E+00     0.000  -1.
   25    2    1    2    0    0   0.0000000000E+00   0.0000000000E+00  -2.3514099343E+01   1.2719242457E+02   1.2500000000E+02  2.269E-08  -1.
3000002    2    3    0    0    0  -5.3108370312E+01   1.4344463029E+01   1.6661049264E+01   5.8342550333E+01   1.0000000000E+01  9.416E-11  -1.
3000002    2    3    0    0    0   5.3108370312E+01  -1.4344463029E+01  -4.0175148607E+01   6.8849874237E+01   1.0000000000E+01  8.413E-11  -1.
3000001    1    4    0    0    0  -3.7100771632E+01   9.4378520133E+00   1.6229257021E+01   4.1592416253E+01   1.0000000000E+00     0.000   1.
3000022   2   4   0   0   0   -1.6007598680E+01   4.9066110157E+00   4.3179224327E-01   1.6750134080E+01   2.5000000000E-01   6.617692E+00   0.
3000001    1    5    0    0    0   3.6049924674E+01  -8.6875329066E+00  -3.2452716119E+01   4.9287413003E+01   1.0000000000E+00     0.000  -1.
3000022   2   5   0   0   0   1.7058445638E+01   -5.6569301224E+00   -7.7224324883E+00   1.9562461234E+01   2.5000000000E-01   8.666432E+00   0.
13    1    7    0    0    0  -6.4735672883E+00   1.9713625552E+00   1.1226751561E-01   6.7688235873E+00   1.0500000000E-01     0.000   1.
-13    1    7    0    0    0  -9.5340313918E+00   2.9352484605E+00   3.1952472766E-01   9.9813104929E+00   1.0500000000E-01     0.000  -1.
13    1    9    0    0    0   1.1172340432E+01  -3.7633332611E+00  -5.0616739350E+00   1.2830254713E+01   1.0500000000E-01     0.000   1.
-13    1    9    0    0    0   5.8861052055E+00  -1.8935968614E+00  -2.6607585533E+00   6.7322065211E+00   1.0500000000E-01     0.000  -1.
</event>
<event>
 13   1  9.2978750E-05  1.2500000E+02  7.5467720E-03  1.2380620E-01
   21   -1    0    0  502  501   0.0000000000E+00   0.0000000000E+00   5.3235582096E+01   5.3235582096E+01   0.0000000000E+00     0.000  -1.
   21   -1    0    0  501  502   0.0000000000E+00   0.0000000000E+00  -7.3376674890E+01   7.3376674890E+01   0.0000000000E+00     0.000  -1.
   25    2    1    2    0    0   0.0000000000E+00   0.0000000000E+00  -2.0141092794E+01   1.2661225699E+02   1.2500000000E+02  1.341E-07  -1.
3000002    2    3    0    0    0   5.3604320828E+01  -2.8544693986E+01  -2.1074705282E+01   6.5056636625E+01   1.0000000000E+01  3.911E-10   1.
3000002    2    3    0    0    0  -5.3604320828E+01   2.8544693986E+01   9.3361248781E-01   6.1555620365E+01   1.0000000000E+01  1.780E-10   1.
3000001    1    4    0    0    0   3.0943779512E+01  -1.1472821955E+01  -9.0041902653E+00   3.4223070821E+01   1.0000000000E+00     0.000   1.
3000022   2   4   0   0   0   2.2660541316E+01   -1.7071872032E+01   -1.2070515016E+01   3.0833565804E+01   2.5000000000E-01   7.059654E+00   0.
3000001    1    5    0    0    0  -2.0279356926E+01   6.0601287449E+00  -1.7719323071E+00   2.1263048273E+01   1.0000000000E+00     0.000   1.
3000022   2   5   0   0   0   -3.3324963902E+01   2.2484565241E+01   2.7055447949E+00   4.0292572092E+01   2.5000000000E-01   2.925235E-03   0.
13    1    7    0    0    0   1.5970573464E+01  -1.2081869353E+01  -8.5400667436E+00   2.1770956544E+01   1.0500000000E-01     0.000   1.
-13    1    7    0    0    0   6.6899678520E+00  -4.9900026785E+00  -3.5304482729E+00   9.0626092600E+00   1.0500000000E-01     0.000  -1.
13    1    9    0    0    0  -1.9798038704E+01   1.3416292147E+01   1.6507432793E+00   2.3972801461E+01   1.0500000000E-01     0.000  -1.
-13    1    9    0    0    0  -1.3526925198E+01   9.0682730946E+00   1.0548015156E+00   1.6319770632E+01   1.0500000000E-01     0.000   1.
</event>
<event>
 13   1  9.2978750E-05  1.2500000E+02  7.5467720E-03  1.2380620E-01
   21   -1    0    0  502  501   0.0000000000E+00   0.0000000000E+00   5.0065264534E+01   5.0065264534E+01   0.0000000000E+00     0.000   1.
   21   -1    0    0  501  502   0.0000000000E+00   0.0000000000E+00  -7.8023157100E+01   7.8023157100E+01   0.0000000000E+00     0.000   1.
   25    2    1    2    0    0   0.0000000000E+00   0.0000000000E+00  -2.7957892566E+01   1.2808842163E+02   1.2500000000E+02  1.052E-07  -1.
3000002    2    3    0    0    0  -5.6489810788E+01  -1.4067412778E+01  -3.4910564673E+01   6.8612960517E+01   1.0000000000E+01  2.646E-10  -1.
3000002    2    3    0    0    0   5.6489810788E+01   1.4067412778E+01   6.9526721066E+00   5.9475461113E+01   1.0000000000E+01  2.907E-09  -1.
3000001    1    4    0    0    0  -4.2321994998E+00   1.3272214149E+00  -2.0164865340E+00   4.9738563743E+00   1.0000000000E+00     0.000  -1.
3000022   2   4   0   0   0   -5.2257611289E+01   -1.5394634193E+01   -3.2894078139E+01   6.3639104143E+01   2.5000000000E-01   3.553689E+00   0.
3000001    1    5    0    0    0   3.0441359823E+01   2.5345302843E+00   2.9028639814E+00   3.0700600172E+01   1.0000000000E+00     0.000   1.
3000022   2   5   0   0   0   2.6048450965E+01   1.1532882494E+01   4.0498081251E+00   2.8774860940E+01   2.5000000000E-01   2.715605E+00   0.
13    1    7    0    0    0  -3.9874055154E+01  -1.1754904792E+01  -2.5117311909E+01   4.8569624702E+01   1.0500000000E-01     0.000  -1.
-13    1    7    0    0    0  -1.2383556134E+01  -3.6397294014E+00  -7.7767662293E+00   1.5069479441E+01   1.0500000000E-01     0.000   1.
13    1    9    0    0    0   8.5978610064E+00   3.7826414914E+00   1.2869042043E+00   9.4814945008E+00   1.0500000000E-01     0.000   1.
-13    1    9    0    0    0   1.7450589959E+01   7.7502410022E+00   2.7629039208E+00   1.9293366440E+01   1.0500000000E-01     0.000  -1.
</event>
<event>
 13   1  9.2978750E-05  1.2500000E+02  7.5467720E-03  1.2380620E-01
   21   -1    0    0  502  501   0.0000000000E+00   0.0000000000E+00   2.3500770335E+02   2.3500770335E+02   0.0000000000E+00     0.000  -1.
   21   -1    0    0  501  502   0.0000000000E+00   0.0000000000E+00  -1.6621795559E+01   1.6621795559E+01   0.0000000000E+00     0.000  -1.
   25    2    1    2    0    0   0.0000000000E+00   0.0000000000E+00   2.1838590779E+02   2.5162949891E+02   1.2500000000E+02  2.257E-09  -1.
3000002    2    3    0    0    0   6.0925148052E+01   6.9012833816E+00   1.2295667771E+02   1.3776010297E+02   1.0000000000E+01  3.521E-09   1.
3000002    2    3    0    0    0  -6.0925148052E+01  -6.9012833816E+00   9.5429230080E+01   1.1386939594E+02   1.0000000000E+01  9.165E-10   1.
3000001    1    4    0    0    0   2.6138409315E+01   7.8899676374E+00   5.3580251067E+01   6.0144088115E+01   1.0000000000E+00     0.000  -1.
3000022   2   4   0   0   0   3.4786738737E+01   -9.8868425572E-01   6.9376426643E+01   7.7616014857E+01   2.5000000000E-01   2.964154E+00   0.
3000001    1    5    0    0    0  -3.7467020665E+01  -7.3181587759E+00   5.2121052919E+01   6.4613754285E+01   1.0000000000E+00     0.000  -1.
3000022   2   5   0   0   0   -2.3458127387E+01   4.1687539426E-01   4.3308177162E+01   4.9255641653E+01   2.5000000000E-01   1.289668E+00   0.
13    1    7    0    0    0   1.9532022649E+01  -4.9595619192E-01   3.9015464813E+01   4.3634429077E+01   1.0500000000E-01     0.000   1.
-13    1    7    0    0    0   1.5254716088E+01  -4.9272806380E-01   3.0360961830E+01   3.3981585780E+01   1.0500000000E-01     0.000  -1.
13    1    9    0    0    0  -1.3492009778E+01   2.8040731778E-01   2.5016739377E+01   2.8424658840E+01   1.0500000000E-01     0.000   1.
-13    1    9    0    0    0  -9.9661176090E+00   1.3646807648E-01   1.8291437785E+01   2.0830982813E+01   1.0500000000E-01     0.000  -1.
</event>
<event>
 13   1  9.2978750E-05  1.2500000E+02  7.5467720E-03  1.2380620E-01
   21   -1    0    0  502  501   0.0000000000E+00   0.0000000000E+00   7.1621716396E+00   7.1621716396E+00   0.0000000000E+00     0.000   1.
   21   -1    0    0  501  502   0.0000000000E+00   0.0000000000E+00  -5.4540022169E+02   5.4540022169E+02   0.0000000000E+00     0.000   1.
   25    2    1    2    0    0   0.0000000000E+00   0.0000000000E+00  -5.3823805005E+02   5.5256239333E+02   1.2500000000E+02  1.031E-07  -1.
3000002    2    3    0    0    0   8.5542311745E+00  -4.4381819145E+01  -4.5474468806E+02   4.5709479549E+02   1.0000000000E+01  1.186E-09   1.
3000002    2    3    0    0    0  -8.5542311745E+00   4.4381819145E+01  -8.3493361987E+01   9.5467597841E+01   1.0000000000E+01  1.733E-10   1.
3000001    1    4    0    0    0   9.1027210418E+00  -4.1007722652E+01  -3.8942315626E+02   3.9168340210E+02   1.0000000000E+00     0.000   1.
3000022   2   4   0   0   0   -5.4848986729E-01   -3.3740964936E+00   -6.5321531805E+01   6.5411393394E+01   2.5000000000E-01   1.754567E+00   0.
3000001    1    5    0    0    0  -3.7879470854E+00   2.0185247449E+01  -4.8282962069E+01   5.2478921329E+01   1.0000000000E+00     0.000  -1.
3000022   2   5   0   0   0   -4.7662840891E+00   2.4196571696E+01   -3.5210399918E+01   4.2988676512E+01   2.5000000000E-01   6.905903E+00   0.
13    1    7    0    0    0  -2.0387044060E-01  -1.2033257633E+00  -2.4461139928E+01   2.4491793475E+01   1.0500000000E-01     0.000  -1.
-13    1    7    0    0    0  -3.4461942669E-01  -2.1707707302E+00  -4.0860391877E+01   4.0919599918E+01   1.0500000000E-01     0.000   1.
13    1    9    0    0    0  -3.4098848567E+00   1.7430216071E+01  -2.5412950625E+01   3.1004335688E+01   1.0500000000E-01     0.000  -1.
-13    1    9    0    0    0  -1.3563992324E+00   6.7663556251E+00  -9.7974492937E+00   1.1984340824E+01   1.0500000000E-01     0.000   1.
</event>
<event>
 13   1  9.2978750E-05  1.2500000E+02  7.5467720E-03  1.2380620E-01
   21   -1    0    0  502  501   0.0000000000E+00   0.0000000000E+00   3.3495280385E+02   3.3495280385E+02   0.0000000000E+00     0.000  -1.
   21   -1    0    0  501  502   0.0000000000E+00   0.0000000000E+00  -1.1662090764E+01   1.1662090764E+01   0.0000000000E+00     0.000  -1.
   25    2    1    2    0    0   0.0000000000E+00   0.0000000000E+00   3.2329071308E+02   3.4661489461E+02   1.2500000000E+02  3.023E-08  -1.
3000002    2    3    0    0    0  -9.9219243309E+00  -6.0882206650E+01   1.5865583150E+02   1.7051909142E+02   1.0000000000E+01  5.308E-10  -1.
3000002    2    3    0    0    0   9.9219243309E+00   6.0882206650E+01   1.6463488158E+02   1.7609580319E+02   1.0000000000E+01  2.894E-10  -1.
3000001    1    4    0    0    0  -6.3957324120E+00  -5.5230895945E+01   1.3684102853E+02   1.4770857913E+02   1.0000000000E+00     0.000  -1.
3000022   2   4   0   0   0   -3.5261919189E+00   -5.6513107047E+00   2.1814802968E+01   2.2810512285E+01   2.5000000000E-01   9.734656E+00   0.
3000001    1    5    0    0    0   7.3170269316E+00   4.3551040422E+01   1.2959899185E+02   1.3692016175E+02   1.0000000000E+00     0.000   1.
3000022   2   5   0   0   0   2.6048973993E+00   1.7331166228E+01   3.5035889732E+01   3.9175641445E+01   2.5000000000E-01   4.418475E+00   0.
13    1    7    0    0    0  -1.4632627098E+00  -2.3474286096E+00   8.8410330766E+00   9.2642565647E+00   1.0500000000E-01     0.000  -1.
-13    1    7    0    0    0  -2.0629292091E+00  -3.3038820951E+00   1.2973769892E+01   1.3546255720E+01   1.0500000000E-01     0.000   1.
13    1    9    0    0    0   1.7653650115E+00   1.1549817697E+01   2.3456543165E+01   2.6205633836E+01   1.0500000000E-01     0.000  -1.
-13    1    9    0    0    0   8.3953238784E-01   5.7813485307E+00   1.1579346567E+01   1.2970007609E+01   1.0500000000E-01     0.000   1.
</event>
<event>
 13   1  9.2978750E-05  1.2500000E+02  7.5467720E-03  1.2380620E-01
   21   -1    0    0  502  501   0.0000000000E+00   0.0000000000E+00   1.1182389397E+02   1.1182389397E+02   0.0000000000E+00     0.000   1.
   21   -1    0    0  501  502   0.0000000000E+00   0.0000000000E+00  -3.4932158606E+01   3.4932158606E+01   0.0000000000E+00     0.000   1.
   25    2    1    2    0    0   0.0000000000E+00   0.0000000000E+00   7.6891735362E+01   1.4675605257E+02   1.2500000000E+02  3.141E-08  -1.
3000002    2    3    0    0    0   7.8667024888E+00   5.3131364883E+01   7.4084050099E+01   9.2050385232E+01   1.0000000000E+01  4.618E-11   1.
3000002    2    3    0    0    0  -7.8667024888E+00  -5.3131364883E+01   2.8076852634E+00   5.4705667338E+01   1.0000000000E+01  2.543E-10   1.
3000001    1    4    0    0    0  -8.6799295765E-01   1.0885328817E+01   1.0280501425E+01   1.5031051353E+01   1.0000000000E+00     0.000  -1.
3000022   2   4   0   0   0   8.7346954464E+00   4.2246036066E+01   6.3803548674E+01   7.7019333879E+01   2.5000000000E-01   6.237997E-01   0.
3000001    1    5    0    0    0  -7.6382000167E+00  -5.2891818839E+01   3.8455044835E+00   5.3588007094E+01   1.0000000000E+00     0.000   1.
3000022   2   5   0   0   0   -2.2850247203E-01   -2.3954604369E-01   -1.0378192201E+00   1.1176602437E+00   2.5000000000E-01   8.924620E-01   0.
13    1    7    0    0    0   6.0295172607E+00   2.9230118971E+01   4.4059162754E+01   5.3216311231E+01   1.0500000000E-01     0.000  -1.
-13    1    7    0    0    0   2.7051781857E+00   1.3015917095E+01   1.9744385920E+01   2.3803022648E+01   1.0500000000E-01     0.000   1.
13    1    9    0    0    0  -1.1141083095E-01  -5.2828706265E-02  -3.0629201334E-01   3.4647228301E-01   1.0500000000E-01     0.000   1.
-13    1    9    0    0    0  -1.1709164108E-01  -1.8671733743E-01  -7.3152720675E-01   7.7118796070E-01   1.0500000000E-01     0.000  -1.
</event>
<event>
 13   1  9.2978750E-05  1.2500000E+02  7.5467720E-03  1.2380620E-01
   21   -1    0    0  502  501   0.0000000000E+00   0.0000000000E+00   9.8549460991E+00   9.8549460991E+00   0.0000000000E+00     0.000  -1.
   21   -1    0    0  501  502   0.0000000000E+00   0.0000000000E+00  -3.9637456773E+02   3.9637456773E+02   0.0000000000E+00     0.000  -1.
   25    2    1    2    0    0   0.0000000000E+00   0.0000000000E+00  -3.8651962163E+02   4.0622951383E+02   1.2500000000E+02  9.084E-09  -1.
3000002    2    3    0    0    0   2.7329058617E+01  -1.6800689270E+01  -2.1999016524E+01   4.0163382985E+01   1.0000000000E+01  1.129E-09  -1.
3000002    2    3    0    0    0  -2.7329058617E+01   1.6800689270E+01  -3.6452060511E+02   3.6606613084E+02   1.0000000000E+01  3.943E-10  -1.
3000001    1    4    0    0    0   2.1905696546E+01  -1.5200720333E+01  -2.1873927808E+01   3.4502031209E+01   1.0000000000E+00     0.000   1.
3000022   2   4   0   0   0   5.4233620711E+00   -1.5999689362E+00   -1.2508871640E-01   5.6613517765E+00   2.5000000000E-01   8.600135E+00   0.
3000001    1    5    0    0    0  -8.0510483501E+00   9.1327360529E+00  -1.0251543141E+02   1.0324068928E+02   1.0000000000E+00     0.000  -1.
3000022   2   5   0   0   0   -1.9278010266E+01   7.6679532168E+00   -2.6200517370E+02   2.6282544156E+02   2.5000000000E-01   3.331645E+00   0.
13    1    7    0    0    0   3.9820662947E+00  -1.1403809065E+00  -7.9749381638E-02   4.1442376321E+00   1.0500000000E-01     0.000  -1.
-13    1    7    0    0    0   1.4412957764E+00  -4.5958802973E-01  -4.5339334765E-02   1.5171141445E+00   1.0500000000E-01     0.000   1.
13    1    9    0    0    0  -1.3575850457E+01   5.4205175430E+00  -1.8408696929E+02   1.8466648048E+02   1.0500000000E-01     0.000   1.
-13    1    9    0    0    0  -5.7021598098E+00   2.2474356737E+00  -7.7918204414E+01   7.8158961084E+01   1.0500000000E-01     0.000  -1.
</event>
<event>
 13   1  9.2978750E-05  1.2500000E+02  7.5467720E-03  1.2380620E-01
   21   -1    0    0  502  501   0.0000000000E+00   0.0000000000E+00   3.2582470143E+01   3.2582470143E+01   0.0000000000E+00     0.000   1.
   21   -1    0    0  501  502   0.0000000000E+00   0.0000000000E+00  -1.1988808653E+02   1.1988808653E+02   0.0000000000E+00     0.000   1.
   25    2    1    2    0    0   0.0000000000E+00   0.0000000000E+00  -8.7305616391E+01   1.5247055668E+02   1.2500000000E+02  4.145E-08  -1.
3000002    2    3    0    0    0  -8.1720959406E+00  -4.6286670715E+01   5.0921746121E+00   4.8323589273E+01   1.0000000000E+01  1.701E-10   1.
3000002    2    3    0    0    0   8.1720959406E+00   4.6286670715E+01  -9.2397791003E+01   1.0414696741E+02   1.0000000000E+01  1.529E-10   1.
3000001    1    4    0    0    0  -9.6261531253E+00  -3.6762133116E+01   1.5209734394E+00   3.8045112898E+01   1.0000000000E+00     0.000   1.
3000022   2   4   0   0   0   1.4540571847E+00   -9.5245375985E+00   3.5712011727E+00   1.0278476374E+01   2.5000000000E-01   1.219815E+00   0.
3000001    1    5    0    0    0   8.7031211098E+00   3.2008426438E+01  -5.6738022482E+01   6.5730410582E+01   1.0000000000E+00     0.000   1.
3000022   2   5   0   0   0   -5.3102516920E-01   1.4278244277E+01   -3.5659768521E+01   3.8416556826E+01   2.5000000000E-01   1.214513E+01   0.
13    1    7    0    0    0   4.9046725639E-01  -3.3210939003E+00   1.3020800432E+00   3.6023131823E+00   1.0500000000E-01     0.000  -1.
-13    1    7    0    0    0   9.6358992830E-01  -6.2034436981E+00   2.2691211295E+00   6.6761631920E+00   1.0500000000E-01     0.000   1.
13    1    9    0    0    0  -2.5309089394E-01   7.9727618644E+00  -1.9772687370E+01   2.1321331515E+01   1.0500000000E-01     0.000   1.
-13    1    9    0    0    0  -2.7793427526E-01   6.3054824122E+00  -1.5887081152E+01   1.7095225311E+01   1.0500000000E-01     0.000  -1.
</event>
<event>
 13   1  9.2978750E-05  1.2500000E+02  7.5467720E-03  1.2380620E-01
   21   -1    0    0  502  501   0.0000000000E+00   0.0000000000E+00   5.0488508042E+01   5.0488508042E+01   0.0000000000E+00     0.000   1.
   21   -1    0    0  501  502   0.0000000000E+00   0.0000000000E+00  -7.7369091531E+01   7.7369091531E+01   0.0000000000E+00     0.000   1.
   25    2    1    2    0    0   0.0000000000E+00   0.0000000000E+00  -2.6880583489E+01   1.2785759957E+02   1.2500000000E+02  1.179E-08  -1.
3000002    2    3    0    0    0   1.5238924991E+01   4.4008616282E+01  -5.4828466008E+01   7.2630185369E+01   1.0000000000E+01  1.179E-09  -1.
3000002    2    3    0    0    0  -1.5238924991E+01  -4.4008616282E+01   2.7947882519E+01   5.5227414201E+01   1.0000000000E+01  1.062E-09  -1.
3000001    1    4    0    0    0   6.5253637113E+00   2.8857293679E+01  -2.8983909905E+01   4.1429347127E+01   1.0000000000E+00     0.000  -1.
3000022   2   4   0   0   0   8.7135612802E+00   1.5151322603E+01   -2.5844556104E+01   3.1200838242E+01   2.5000000000E-01   1.266932E+01   0.
3000001    1    5    0    0    0  -3.5648391745E+00  -1.5034543674E+01   1.4514492561E+01   2.1223008178E+01   1.0000000000E+00     0.000  -1.
3000022   2   5   0   0   0   -1.1674085817E+01   -2.8974072608E+01   1.3433389958E+01   3.4004406023E+01   2.5000000000E-01   8.336919E+00   0.
13    1    7    0    0    0   2.3751739174E+00   4.1078241015E+00  -7.0797916800E+00   8.5235054537E+00   1.0500000000E-01     0.000   1.
-13    1    7    0    0    0   6.3383873629E+00   1.1043498502E+01  -1.8764764424E+01   2.2677332789E+01   1.0500000000E-01     0.000  -1.
13    1    9    0    0    0  -5.1687695659E+00  -1.3005428938E+01   6.0264990597E+00   1.5237686065E+01   1.0500000000E-01     0.000   1.
-13    1    9    0    0    0  -6.5053162511E+00  -1.5968643670E+01   7.4068908988E+00   1.8766719958E+01   1.0500000000E-01     0.000  -1.
</event>
<event>
 13   1  9.2978750E-05  1.2500000E+02  7.5467720E-03  1.2380620E-01
   21   -1    0    0  502  501   0.0000000000E+00   0.0000000000E+00   1.0794945238E+02   1.0794945238E+02   0.0000000000E+00     0.000  -1.
   21   -1    0    0  501  502   0.0000000000E+00   0.0000000000E+00  -3.6185917705E+01   3.6185917705E+01   0.0000000000E+00     0.000  -1.
   25    2    1    2    0    0   0.0000000000E+00   0.0000000000E+00   7.1763534670E+01   1.4413537008E+02   1.2500000000E+02  5.974E-08  -1.
3000002    2    3    0    0    0   5.3098874980E+00  -5.4064136878E+01   6.9600803543E+01   8.8856050190E+01   1.0000000000E+01  4.722E-10  -1.
3000002    2    3    0    0    0  -5.3098874980E+00   5.4064136878E+01   2.1627311272E+00   5.5279319890E+01   1.0000000000E+01  1.723E-09  -1.
3000001    1    4    0    0    0   1.5615700278E+00  -3.7605486123E+01   5.4269918088E+01   6.6051760740E+01   1.0000000000E+00     0.000  -1.
3000022   2   4   0   0   0   3.7483174701E+00   -1.6458650754E+01   1.5330885455E+01   2.2804289450E+01   2.5000000000E-01   7.911782E+00   0.
3000001    1    5    0    0    0   1.9205004943E+00   3.4393388716E+00   6.6540354685E-01   4.1182685563E+00   1.0000000000E+00     0.000   1.
3000022   2   5   0   0   0   -7.2303879923E+00   5.0624798006E+01   1.4973275804E+00   5.1161051334E+01   2.5000000000E-01   1.426096E-01   0.
13    1    7    0    0    0   1.8642796663E+00  -8.3913364316E+00   7.7391505994E+00   1.1567002325E+01   1.0500000000E-01     0.000   1.
-13    1    7    0    0    0   1.8840378038E+00  -8.0673143227E+00   7.5917348554E+00   1.1237287126E+01   1.0500000000E-01     0.000  -1.
13    1    9    0    0    0  -4.7268919642E+00   3.3073246617E+01   1.0340999527E+00   3.3425492325E+01   1.0500000000E-01     0.000   1.
-13    1    9    0    0    0  -2.5034960281E+00   1.7551551389E+01   4.6322762770E-01   1.7735559009E+01   1.0500000000E-01     0.000  -1.
</event>
<event>
 13   1  9.2978750E-05  1.2500000E+02  7.5467720E-03  1.2380620E-01
   21   -1    0    0  502  501   0.0000000000E+00   0.0000000000E+00   4.4375958115E+01   4.4375958115E+01   0.0000000000E+00     0.000  -1.
   21   -1    0    0  501  502   0.0000000000E+00   0.0000000000E+00  -8.8026268411E+01   8.8026268411E+01   0.0000000000E+00     0.000  -1.
   25    2    1    2    0    0   0.0000000000E+00   0.0000000000E+00  -4.3650310296E+01   1.3240222653E+02   1.2500000000E+02  1.036E-07  -1.
3000002    2    3    0    0    0  -5.1839402797E+01  -1.5329896073E+01  -5.3316550496E+01   7.6583183224E+01   1.0000000000E+01  1.026E-09   1.
3000002    2    3    0    0    0   5.1839402797E+01   1.5329896073E+01   9.6662401999E+00   5.5819043306E+01   1.0000000000E+01  1.308E-09   1.
3000001    1    4    0    0    0  -1.5243160239E+01  -3.8456968970E+00  -9.6973122209E+00   1.8498139988E+01   1.0000000000E+00     0.000  -1.
3000022   2   4   0   0   0   -3.6596242558E+01   -1.1484199176E+01   -4.3619238275E+01   5.8085043236E+01   2.5000000000E-01   2.221231E+00   0.
3000001    1    5    0    0    0   2.6629982380E+01   6.6429859384E+00   2.4991779656E-02   2.7464264933E+01   1.0000000000E+00     0.000  -1.
3000022   2   5   0   0   0   2.5209420417E+01   8.6869101346E+00   9.6412484202E+00   2.8354778373E+01   2.5000000000E-01   6.512573E+00   0.
13    1    7    0    0    0  -1.7123880484E+01  -5.3353530744E+00  -2.0311379679E+01   2.7097166729E+01   1.0500000000E-01     0.000   1.
-13    1    7    0    0    0  -1.9472362074E+01  -6.1488461016E+00  -2.3307858596E+01   3.0987876507E+01   1.0500000000E-01     0.000  -1.
13    1    9    0    0    0   7.9669102822E+00   2.7774331476E+00   3.0930125228E+00   8.9868540547E+00   1.0500000000E-01     0.000   1.
-13    1    9    0    0    0   1.7242510135E+01   5.9094769871E+00   6.5482358975E+00   1.9367924318E+01   1.0500000000E-01     0.000  -1.
</event>
<event>
 13   1  9.2978750E-05  1.2500000E+02  7.5467720E-03  1.2380620E-01
   21   -1    0    0  502  501   0.0000000000E+00   0.0000000000E+00   2.3253145631E+02   2.3253145631E+02   0.0000000000E+00     0.000  -1.
   21   -1    0    0  501  502   0.0000000000E+00   0.0000000000E+00  -1.6798802459E+01   1.6798802459E+01   0.0000000000E+00     0.000  -1.
   25    2    1    2    0    0   0.0000000000E+00   0.0000000000E+00   2.1573265385E+02   2.4933025877E+02   1.2500000000E+02  3.451E-09  -1.
3000002    2    3    0    0    0   2.7314031356E+01  -5.4203773263E+01   1.2991092623E+02   1.4373918776E+02   1.0000000000E+01  3.165E-10  -1.
3000002    2    3    0    0    0  -2.7314031356E+01   5.4203773263E+01   8.5821727623E+01   1.0559107101E+02   1.0000000000E+01  2.232E-10  -1.
3000001    1    4    0    0    0   1.1541301796E+01  -1.3694692355E+01   3.4208279493E+01   3.8625802668E+01   1.0000000000E+00     0.000   1.
3000022   2   4   0   0   0   1.5772729560E+01   -4.0509080907E+01   9.5702646734E+01   1.0511338509E+02   2.5000000000E-01   4.635654E+00   0.
3000001    1    5    0    0    0  -2.7813677939E+01   4.9832513395E+01   8.0491869755E+01   9.8675332117E+01   1.0000000000E+00     0.000  -1.
3000022   2   5   0   0   0   4.9964658347E-01   4.3712598677E+00   5.3298578675E+00   6.9157388923E+00   2.5000000000E-01   8.084262E+00   0.
13    1    7    0    0    0   1.0449300490E+01  -2.6698362296E+01   6.3064344481E+01   6.9275630635E+01   1.0500000000E-01     0.000   1.
-13    1    7    0    0    0   5.3234290697E+00  -1.3810718611E+01   3.2638302253E+01   3.5837754458E+01   1.0500000000E-01     0.000  -1.
13    1    9    0    0    0   1.5755659252E-01   1.8687340202E+00   2.2186735567E+00   2.9069792344E+00   1.0500000000E-01     0.000  -1.
-13    1    9    0    0    0   3.4208999095E-01   2.5025258475E+00   3.1111843107E+00   4.0087596579E+00   1.0500000000E-01     0.000   1.
</event>
<event>
 13   1  9.2978750E-05  1.2500000E+02  7.5467720E-03  1.2380620E-01
   21   -1    0    0  502  501   0.0000000000E+00   0.0000000000E+00   4.0269180719E+01   4.0269180719E+01   0.0000000000E+00     0.000  -1.
   21   -1    0    0  501  502   0.0000000000E+00   0.0000000000E+00  -9.7003463448E+01   9.7003463448E+01   0.0000000000E+00     0.000  -1.
   25    2    1    2    0    0   0.0000000000E+00   0.0000000000E+00  -5.6734282729E+01   1.3727264417E+02   1.2500000000E+02  8.331E-08  -1.
3000002    2    3    0    0    0  -7.9666991133E+00   3.3768487376E+01  -8.4390215072E+01   9.1790453939E+01   1.0000000000E+01  4.844E-10   1.
3000002    2    3    0    0    0   7.9666991133E+00  -3.3768487376E+01   2.7655932343E+01   4.5482190231E+01   1.0000000000E+01  5.562E-11   1.
3000001    1    4    0    0    0  -7.5235183744E+00   1.1503945716E+01  -3.4763505614E+01   3.7395794126E+01   1.0000000000E+00     0.000  -1.
3000022   2   4   0   0   0   -4.4318073895E-01   2.2264541660E+01   -4.9626709458E+01   5.4394659813E+01   2.5000000000E-01   9.109362E+00   0.
3000001    1    5    0    0    0   9.0474751017E+00  -1.7051553146E+01   1.3967445571E+01   2.3847469597E+01   1.0000000000E+00     0.000  -1.
3000022   2   5   0   0   0   -1.0807759884E+00   -1.6716934230E+01   1.3688486773E+01   2.1634720634E+01   2.5000000000E-01   8.402200E-01   0.
13    1    7    0    0    0  -2.1618394349E-01   7.9647893304E+00  -1.7747254406E+01   1.9454065604E+01   1.0500000000E-01     0.000   1.
-13    1    7    0    0    0  -2.2699679545E-01   1.4299752330E+01  -3.1879455052E+01   3.4940594209E+01   1.0500000000E-01     0.000  -1.
13    1    9    0    0    0  -4.4214449547E-01  -5.9600574034E+00   4.8706626608E+00   7.7105224052E+00   1.0500000000E-01     0.000   1.
-13    1    9    0    0    0  -6.3863149293E-01  -1.0756876826E+01   8.8178241117E+00   1.3924198229E+01   1.0500000000E-01     0.000  -1.
</event>
<event>
 13   1  9.2978750E-05  1.2500000E+02  7.5467720E-03  1.2380620E-01
   21   -1    0    0  502  501   0.0000000000E+00   0.0000000000E+00   5.7843663286E+02   5.7843663286E+02   0.0000000000E+00     0.000  -1.
   21   -1    0    0  501  502   0.0000000000E+00   0.0000000000E+00  -6.7531165526E+00   6.7531165526E+00   0.0000000000E+00     0.000  -1.
   25    2    1    2    0    0   0.0000000000E+00   0.0000000000E+00   5.7168351630E+02   5.8518974941E+02   1.2500000000E+02  1.234E-08  -1.
3000002    2    3    0    0    0   3.3673083876E+01   4.7019463841E+01   3.8641744106E+02   3.9084926162E+02   1.0000000000E+01  1.053E-09  -1.
3000002    2    3    0    0    0  -3.3673083876E+01  -4.7019463841E+01   1.8526607524E+02   1.9434048779E+02   1.0000000000E+01  3.434E-10  -1.
3000001    1    4    0    0    0   8.4415270411E+00   1.3013222052E+01   7.7529055867E+01   7.9071852328E+01   1.0000000000E+00     0.000   1.
3000022   2   4   0   0   0   2.5231556835E+01   3.4006241789E+01   3.0888838519E+02   3.1177740929E+02   2.5000000000E-01   3.588604E+00   0.
3000001    1    5    0    0    0  -1.6333480758E+00  -4.8577361898E+00   2.5431268459E+01   2.5961795821E+01   1.0000000000E+00     0.000   1.
3000022   2   5   0   0   0   -3.2039735800E+01   -4.2161727652E+01   1.5983480678E+02   1.6837869197E+02   2.5000000000E-01   9.856143E-01   0.
13    1    7    0    0    0   1.7402140559E+01   2.3374743896E+01   2.1248137515E+02   2.1447041511E+02   1.0500000000E-01     0.000  -1.
-13    1    7    0    0    0   7.8294162758E+00   1.0631497893E+01   9.6407010038E+01   9.7306994179E+01   1.0500000000E-01     0.000   1.
13    1    9    0    0    0  -9.5876242936E+00  -1.2644911755E+01   4.7763320507E+01   5.0330528943E+01   1.0500000000E-01     0.000  -1.
-13    1    9    0    0    0  -2.2452111507E+01  -2.9516815897E+01   1.1207148628E+02   1.1804816302E+02   1.0500000000E-01     0.000   1.
</event>
<event>
 13   1  9.2978750E-05  1.2500000E+02  7.5467720E-03  1.2380620E-01
   21   -1    0    0  502  501   0.0000000000E+00   0.0000000000E+00   8.6994223464E+01   8.6994223464E+01   0.0000000000E+00     0.000  -1.
   21   -1    0    0  501  502   0.0000000000E+00   0.0000000000E+00  -4.4902406671E+01   4.4902406671E+01   0.0000000000E+00     0.000  -1.
   25    2    1    2    0    0   0.0000000000E+00   0.0000000000E+00   4.2091816793E+01   1.3189663013E+02   1.2500000000E+02  2.169E-08  -1.
3000002    2    3    0    0    0  -4.9171006971E+00  -6.0424582422E+01   8.9715766356E+00   6.2095066048E+01   1.0000000000E+01  4.052E-11  -1.
3000002    2    3    0    0    0   4.9171006971E+00   6.0424582422E+01   3.3120240157E+01   6.9801564082E+01   1.0000000000E+01  1.224E-09  -1.
3000001    1    4    0    0    0   1.7282648096E+00  -3.1195733866E+01   7.1321228811E+00   3.2062873974E+01   1.0000000000E+00     0.000  -1.
3000022   2   4   0   0   0   -6.6453655067E+00   -2.9228848557E+01   1.8394537545E+00   3.0032192074E+01   2.5000000000E-01   1.465987E+00   0.
3000001    1    5    0    0    0   2.5458823787E+00   5.7755435275E+01   3.0545824804E+01   6.5392807203E+01   1.0000000000E+00     0.000  -1.
3000022   2   5   0   0   0   2.3712183184E+00   2.6691471475E+00   2.5744153534E+00   4.4087568792E+00   2.5000000000E-01   2.022503E+00   0.
13    1    7    0    0    0  -2.3795788376E+00  -1.0402165320E+01   5.9905518523E-01   1.0688186511E+01   1.0500000000E-01     0.000   1.
-13    1    7    0    0    0  -4.2657866691E+00  -1.8826683237E+01   1.2403985693E+00   1.9344005563E+01   1.0500000000E-01     0.000  -1.
13    1    9    0    0    0   9.5608687012E-01   1.1007281253E+00   1.1284416740E+00   1.8466483478E+00   1.0500000000E-01     0.000   1.
-13    1    9    0    0    0   1.4151314482E+00   1.5684190222E+00   1.4459736794E+00   2.5621085314E+00   1.0500000000E-01     0.000  -1.
</event>
<event>
 13   1  9.2978750E-05  1.2500000E+02  7.5467720E-03  1.2380620E-01
   21   -1    0    0  502  501   0.0000000000E+00   0.0000000000E+00   1.1439980136E+01   1.1439980136E+01   0.0000000000E+00     0.000  -1.
   21   -1    0    0  501  502   0.0000000000E+00   0.0000000000E+00  -3.4145601247E+02   3.4145601247E+02   0.0000000000E+00     0.000  -1.
   25    2    1    2    0    0   0.0000000000E+00   0.0000000000E+00  -3.3001603233E+02   3.5289599260E+02   1.2500000000E+02  1.492E-08  -1.
3000002    2    3    0    0    0   1.7002454935E+01  -5.8712200225E+01  -1.8863576807E+02   1.9854384635E+02   1.0000000000E+01  7.208E-10  -1.
3000002    2    3    0    0    0  -1.7002454935E+01   5.8712200225E+01  -1.4138026426E+02   1.5435214625E+02   1.0000000000E+01  1.400E-09  -1.
3000001    1    4    0    0    0   4.4056128159E+00  -3.1005230171E+01  -1.0296971468E+02   1.0763129593E+02   1.0000000000E+00     0.000  -1.
3000022   2   4   0   0   0   1.2596842119E+01   -2.7706970054E+01   -8.5666053391E+01   9.0912550424E+01   2.5000000000E-01   6.187574E+00   0.
3000001    1    5    0    0    0  -8.3347442227E+00   3.8949626540E+01  -8.1900009202E+01   9.1077729859E+01   1.0000000000E+00     0.000  -1.
3000022   2   5   0   0   0   -8.6677107126E+00   1.9762573684E+01   -5.9480255061E+01   6.3274416392E+01   2.5000000000E-01   1.176065E+00   0.
13    1    7    0    0    0   5.1414505943E+00  -1.1378614712E+01  -3.5315097276E+01   3.7457636172E+01   1.0500000000E-01     0.000  -1.
-13    1    7    0    0    0   7.4553915252E+00  -1.6328355342E+01  -5.0350956115E+01   5.3454914252E+01   1.0500000000E-01     0.000   1.
13    1    9    0    0    0  -3.2084901012E+00   7.4650432823E+00  -2.2413745220E+01   2.3841314556E+01   1.0500000000E-01     0.000  -1.
-13    1    9    0    0    0  -5.4592206114E+00   1.2297530402E+01  -3.7066509840E+01   3.9433101836E+01   1.0500000000E-01     0.000   1.
</event>
<event>
 13   1  9.2978750E-05  1.2500000E+02  7.5467720E-03  1.2380620E-01
   21   -1    0    0  502  501   0.0000000000E+00   0.0000000000E+00   1.7399747566E+02   1.7399747566E+02   0.0000000000E+00     0.000   1.
   21   -1    0    0  501  502   0.0000000000E+00   0.0000000000E+00  -2.2450038342E+01   2.2450038342E+01   0.0000000000E+00     0.000   1.
   25    2    1    2    0    0   0.0000000000E+00   0.0000000000E+00   1.5154743732E+02   1.9644751400E+02   1.2500000000E+02  3.659E-08  -1.
3000002    2    3    0    0    0   3.4076611256E+00  -5.1342607670E+01   2.2280527850E+01   5.6956978835E+01   1.0000000000E+01  5.269E-10   1.
3000002    2    3    0    0    0  -3.4076611256E+00   5.1342607670E+01   1.2926690947E+02   1.3949053517E+02   1.0000000000E+01  5.316E-10   1.
3000001    1    4    0    0    0   4.2729988605E+00  -3.4153629261E+01   1.0149293392E+01   3.5898984210E+01   1.0000000000E+00     0.000   1.
3000022   2   4   0   0   0   -8.6533773481E-01   -1.7188978409E+01   1.2131234458E+01   2.1057994624E+01   2.5000000000E-01   1.152425E+01   0.
3000001    1    5    0    0    0  -5.0721143717E+00   4.1789122742E+01   1.1246604398E+02   1.2009025011E+02   1.0000000000E+00     0.000   1.
3000022   2   5   0   0   0   1.6644532461E+00   9.5534849286E+00   1.6800865491E+01   1.9400285053E+01   2.5000000000E-01   8.532260E-01   0.
13    1    7    0    0    0  -3.4118538119E-01  -5.7529472931E+00   4.0433584385E+00   7.0407799627E+00   1.0500000000E-01     0.000   1.
-13    1    7    0    0    0  -5.2415235361E-01  -1.1436031116E+01   8.0878760190E+00   1.4017214662E+01   1.0500000000E-01     0.000  -1.
13    1    9    0    0    0   1.0908115279E+00   6.5392799305E+00   1.1512670474E+01   1.3285505570E+01   1.0500000000E-01     0.000   1.
-13    1    9    0    0    0   5.7364171819E-01   3.0142049981E+00   5.2881950167E+00   6.1147794830E+00   1.0500000000E-01     0.000  -1.
</event>
<event>
 13   1  9.2978750E-05  1.2500000E+02  7.5467720E-03  1.2380620E-01
   21   -1    0    0  502  501   0.0000000000E+00   0.0000000000E+00   2.8236548313E+01   2.8236548313E+01   0.0000000000E+00     0.000  -1.
   21   -1    0    0  501  502   0.0000000000E+00   0.0000000000E+00  -1.3834020917E+02   1.3834020917E+02   0.0000000000E+00     0.000  -1.
   25    2    1    2    0    0   0.0000000000E+00   0.0000000000E+00  -1.1010366086E+02   1.6657675749E+02   1.2500000000E+02  3.094E-08  -1.
3000002    2    3    0    0    0  -3.2046327169E+01   2.0316276182E+01   9.7758625651E+00   4.0438665307E+01   1.0000000000E+01  4.007E-10   1.
3000002    2    3    0    0    0   3.2046327169E+01  -2.0316276182E+01  -1.1987952343E+02   1.2613809218E+02   1.0000000000E+01  5.249E-10   1.
3000001    1    4    0    0    0  -1.4325596699E+01   8.7691489068E+00   9.4193667004E+00   1.9283287126E+01   1.0000000000E+00     0.000   1.
3000022   2   4   0   0   0   -1.7720730470E+01   1.1547127275E+01   3.5649586470E-01   2.1155378181E+01   2.5000000000E-01   3.012381E+00   0.
3000001    1    5    0    0    0   2.3606404945E+01  -1.4642152120E+01  -7.1771951319E+01   7.6966667910E+01   1.0000000000E+00     0.000   1.
3000022   2   5   0   0   0   8.4399222236E+00   -5.6741240624E+00   -4.8107572107E+01   4.9171424273E+01   2.5000000000E-01   1.380942E+01   0.
13    1    7    0    0    0  -1.2255826303E+01   8.0092305056E+00   2.9053659720E-01   1.4644059826E+01   1.0500000000E-01     0.000  -1.
-13    1    7    0    0    0  -5.4649041666E+00   3.5378967695E+00   6.5959267503E-02   6.5113183555E+00   1.0500000000E-01     0.000   1.
13    1    9    0    0    0   6.3727663527E+00  -4.2822127665E+00  -3.6199678131E+01   3.7005097202E+01   1.0500000000E-01     0.000   1.
-13    1    9    0    0    0   2.0671558708E+00  -1.3919112959E+00  -1.1907893975E+01   1.2166327070E+01   1.0500000000E-01     0.000  -1.
</event>
<event>
 13   1  9.2978750E-05  1.2500000E+02  7.5467720E-03  1.2380620E-01
   21   -1    0    0  502  501   0.0000000000E+00   0.0000000000E+00   6.8211950254E+00   6.8211950254E+00   0.0000000000E+00     0.000   1.
   21   -1    0    0  501  502   0.0000000000E+00   0.0000000000E+00  -5.7266358541E+02   5.7266358541E+02   0.0000000000E+00     0.000   1.
   25    2    1    2    0    0   0.0000000000E+00   0.0000000000E+00  -5.6584239038E+02   5.7948478044E+02   1.2500000000E+02  4.282E-08  -1.
3000002    2    3    0    0    0  -1.9902084340E+01  -3.5824889650E+01  -4.9671181240E+02   4.9849988993E+02   1.0000000000E+01  5.721E-10  -1.
3000002    2    3    0    0    0   1.9902084340E+01   3.5824889650E+01  -6.9130577980E+01   8.0984890513E+01   1.0000000000E+01  3.558E-10  -1.
3000001    1    4    0    0    0  -2.8450150955E+00  -2.3504772689E+00  -2.4582231844E+01   2.4877800881E+01   1.0000000000E+00     0.000   1.
3000022   2   4   0   0   0   -1.7057069245E+01   -3.3474412382E+01   -4.7212958056E+02   4.7362208905E+02   2.5000000000E-01   8.676994E+00   0.
3000001    1    5    0    0    0   8.5809541838E+00   2.3310533610E+01  -4.6811265926E+01   5.3002909066E+01   1.0000000000E+00     0.000  -1.
3000022   2   5   0   0   0   1.1321130156E+01   1.2514356040E+01   -2.2319312055E+01   2.7981981447E+01   2.5000000000E-01   1.585679E+01   0.
13    1    7    0    0    0  -1.1580656609E+01  -2.2823807483E+01  -3.2193865569E+02   3.2295440367E+02   1.0500000000E-01     0.000  -1.
-13    1    7    0    0    0  -5.4764126358E+00  -1.0650604898E+01  -1.5019092486E+02   1.5066768537E+02   1.0500000000E-01     0.000   1.
13    1    9    0    0    0   5.1909991660E+00   5.8303898150E+00  -1.0281339448E+01   1.2909565585E+01   1.0500000000E-01     0.000   1.
-13    1    9    0    0    0   6.1301309905E+00   6.6839662253E+00  -1.2037972607E+01   1.5072415863E+01   1.0500000000E-01     0.000  -1.
</event>
<event>
 13   1  9.2978750E-05  1.2500000E+02  7.5467720E-03  1.2380620E-01
   21   -1    0    0  502  501   0.0000000000E+00   0.0000000000E+00   1.2992682087E+01   1.2992682087E+01   0.0000000000E+00     0.000   1.
   21   -1    0    0  501  502   0.0000000000E+00   0.0000000000E+00  -3.0065001005E+02   3.0065001005E+02   0.0000000000E+00     0.000   1.
   25    2    1    2    0    0   0.0000000000E+00   0.0000000000E+00  -2.8765732796E+02   3.1364269213E+02   1.2500000000E+02  4.825E-08  -1.
3000002    2    3    0    0    0   2.8619397013E+00  -6.0331559068E+01  -1.1227305108E+02   1.2788012245E+02   1.0000000000E+01  6.764E-11  -1.
3000002    2    3    0    0    0  -2.8619397013E+00   6.0331559068E+01  -1.7538427688E+02   1.8576256968E+02   1.0000000000E+01  1.284E-09  -1.
3000001    1    4    0    0    0  -3.5522035478E+00  -1.9080119354E+01  -3.3536013789E+01   3.8759944859E+01   1.0000000000E+00     0.000  -1.
3000022   2   4   0   0   0   6.4141432491E+00   -4.1251439714E+01   -7.8737037295E+01   8.9120177593E+01   2.5000000000E-01   2.327189E+00   0.
3000001    1    5    0    0    0   1.8004952594E+00   2.8129765635E+01  -9.3088687087E+01   9.7267821819E+01   1.0000000000E+00     0.000  -1.
3000022   2   5   0   0   0   -4.6624349607E+00   3.2201793433E+01   -8.2295589789E+01   8.8494747860E+01   2.5000000000E-01   3.909674E+00   0.
13    1    7    0    0    0   2.7295398582E+00  -1.7969679472E+01  -3.4245240761E+01   3.8769927882E+01   1.0500000000E-01     0.000   1.
-13    1    7    0    0    0   3.6846033909E+00  -2.3281760242E+01  -4.4491796534E+01   5.0350249711E+01   1.0500000000E-01     0.000  -1.
13    1    9    0    0    0  -2.2462932321E+00   1.5930747343E+01  -4.0603511908E+01   4.3674829690E+01   1.0500000000E-01     0.000  -1.
-13    1    9    0    0    0  -2.4161417287E+00   1.6271046090E+01  -4.1692077880E+01   4.4819918169E+01   1.0500000000E-01     0.000   1.
</event>
<event>
 13   1  9.2978750E-05  1.2500000E+02  7.5467720E-03  1.2380620E-01
   21   -1    0    0  502  501   0.0000000000E+00   0.0000000000E+00   1.1534031959E+02   1.1534031959E+02   0.0000000000E+00     0.000   1.
   21   -1    0    0  501  502   0.0000000000E+00   0.0000000000E+00  -3.3867168167E+01   3.3867168167E+01   0.0000000000E+00     0.000   1.
   25    2    1    2    0    0   0.0000000000E+00   0.0000000000E+00   8.1473151423E+01   1.4920748776E+02   1.2500000000E+02  2.894E-08  -1.
3000002    2    3    0    0    0  -3.0959070301E+01  -3.3786803042E+01  -8.5694954528E+00   4.7680691543E+01   1.0000000000E+01  4.460E-10  -1.
3000002    2    3    0    0    0   3.0959070301E+01   3.3786803042E+01   9.0042646876E+01   1.0152679622E+02   1.0000000000E+01  4.661E-10  -1.
3000001    1    4    0    0    0  -1.3668830380E+01  -1.7680696229E+01   4.8130033115E-01   2.2375781396E+01   1.0000000000E+00     0.000  -1.
3000022   2   4   0   0   0   -1.7290239921E+01   -1.6106106813E+01   -9.0507957839E+00   2.5304910147E+01   2.5000000000E-01   3.368866E+00   0.
3000001    1    5    0    0    0   1.0157718045E+01   9.9006315362E+00   1.8904635532E+01   2.3655590994E+01   1.0000000000E+00     0.000   1.
3000022   2   5   0   0   0   2.0801352256E+01   2.3886171506E+01   7.1138011344E+01   7.7871205223E+01   2.5000000000E-01   1.154496E+00   0.
13    1    7    0    0    0  -5.9861195029E+00  -5.5634724302E+00  -3.1892885900E+00   8.7731658422E+00   1.0500000000E-01     0.000   1.
-13    1    7    0    0    0  -1.1304120418E+01  -1.0542634383E+01  -5.8615071939E+00   1.6531744304E+01   1.0500000000E-01     0.000  -1.
13    1    9    0    0    0   1.4965523252E+01   1.7188087287E+01   5.1282482628E+01   5.6118635767E+01   1.0500000000E-01     0.000  -1.
-13    1    9    0    0    0   5.8358290048E+00   6.6980842190E+00   1.9855528716E+01   2.1752569457E+01   1.0500000000E-01     0.000   1.
</event>
<event>
 13   1  9.2978750E-05  1.2500000E+02  7.5467720E-03  1.2380620E-01
   21   -1    0    0  502  501   0.0000000000E+00   0.0000000000E+00   5.2645691896E+01   5.2645691896E+01   0.0000000000E+00     0.000  -1.
   21   -1    0    0  501  502   0.0000000000E+00   0.0000000000E+00  -7.4198853872E+01   7.4198853872E+01   0.0000000000E+00     0.000  -1.
   25    2    1    2    0    0   0.0000000000E+00   0.0000000000E+00  -2.1553161976E+01   1.2684454577E+02   1.2500000000E+02  4.259E-09  -1.
3000002    2    3    0    0    0   1.9064668959E+01  -2.4116561060E+01  -6.5055896928E+01   7.2645301603E+01   1.0000000000E+01  1.123E-09   1.
3000002    2    3    0    0    0  -1.9064668959E+01   2.4116561060E+01   4.3502734952E+01   5.4199244167E+01   1.0000000000E+01  1.956E-10   1.
3000001    1    4    0    0    0   1.5997878483E+01  -1.7803620559E+01  -4.0012561945E+01   4.6635888909E+01   1.0000000000E+00     0.000  -1.
3000022   2   4   0   0   0   3.0667904762E+00   -6.3129405013E+00   -2.5043334984E+01   2.6009412694E+01   2.5000000000E-01   7.386531E-01   0.
3000001    1    5    0    0    0  -5.2108017310E-01   6.3708274738E+00   6.5504812875E+00   9.2069415304E+00   1.0000000000E+00     0.000  -1.
3000022   2   5   0   0   0   -1.8543588786E+01   1.7745733587E+01   3.6952253665E+01   4.4992302636E+01   2.5000000000E-01   1.057819E+01   0.
13    1    7    0    0    0   2.2059528034E+00  -4.5551959059E+00  -1.8196411860E+01   1.8887468520E+01   1.0500000000E-01     0.000   1.
-13    1    7    0    0    0   8.6083767276E-01  -1.7577445954E+00  -6.8469231235E+00   7.1219441742E+00   1.0500000000E-01     0.000  -1.
13    1    9    0    0    0  -9.3316732013E+00   8.8890095136E+00   1.8447626197E+01   2.2503789729E+01   1.0500000000E-01     0.000   1.
-13    1    9    0    0    0  -9.2119155849E+00   8.8567240729E+00   1.8504627468E+01   2.2488512907E+01   1.0500000000E-01     0.000  -1.
</event>
<event>
 13   1  9.2978750E-05  1.2500000E+02  7.5467720E-03  1.2380620E-01
   21   -1    0    0  502  501   0.0000000000E+00   0.0000000000E+00   3.8530524868E+02   3.8530524868E+02   0.0000000000E+00     0.000   1.
   21   -1    0    0  501  502   0.0000000000E+00   0.0000000000E+00  -1.0138065893E+01   1.0138065893E+01   0.0000000000E+00     0.000   1.
   25    2    1    2    0    0   0.0000000000E+00   0.0000000000E+00   3.7516718278E+02   3.9544331457E+02   1.2500000000E+02  1.023E-09  -1.
3000002    2    3    0    0    0   2.6812633234E+01   4.7446983997E+01   9.6107500348E+01   1.1093595096E+02   1.0000000000E+01  6.366E-10  -1.
3000002    2    3    0    0    0  -2.6812633234E+01  -4.7446983997E+01   2.7905968243E+02   2.8450736361E+02   1.0000000000E+01  9.573E-10  -1.
3000001    1    4    0    0    0   2.7357607422E+01   4.3843560425E+01   8.8299418096E+01   1.0231560834E+02   1.0000000000E+00     0.000  -1.
3000022   2   4   0   0   0   -5.4497418764E-01   3.6034235729E+00   7.8080822514E+00   8.6203426125E+00   2.5000000000E-01   4.512708E+00   0.
3000001    1    5    0    0    0  -1.9778569221E+01  -2.5055965698E+01   1.6044248742E+02   1.6359029613E+02   1.0000000000E+00     0.000  -1.
3000022   2   5   0   0   0   -7.0340640138E+00   -2.2391018299E+01   1.1861719501E+02   1.2091706748E+02   2.5000000000E-01   4.030443E+00   0.
13    1    7    0    0    0  -4.3071157117E-01   2.5920095199E+00   5.5972222995E+00   6.1841691664E+00   1.0500000000E-01     0.000  -1.
-13    1    7    0    0    0  -1.1426261647E-01   1.0114140530E+00   2.2108599519E+00   2.4361734460E+00   1.0500000000E-01     0.000   1.
13    1    9    0    0    0  -5.2190415511E+00  -1.6598933003E+01   8.7779092926E+01   8.9487111650E+01   1.0500000000E-01     0.000   1.
-13    1    9    0    0    0  -1.8150224628E+00  -5.7920852963E+00   3.0838102081E+01   3.1429955832E+01   1.0500000000E-01     0.000  -1.
</event>
<event>
 13   1  9.2978750E-05  1.2500000E+02  7.5467720E-03  1.2380620E-01
   21   -1    0    0  502  501   0.0000000000E+00   0.0000000000E+00   7.7345543393E+01   7.7345543393E+01   0.0000000000E+00     0.000   1.
   21   -1    0    0  501  502   0.0000000000E+00   0.0000000000E+00  -5.0503879457E+01   5.0503879457E+01   0.0000000000E+00     0.000   1.
   25    2    1    2    0    0   0.0000000000E+00   0.0000000000E+00   2.6841663936E+01   1.2784942285E+02   1.2500000000E+02  4.608E-09  -1.
3000002    2    3    0    0    0  -5.0057876407E+01   3.7545326108E+00   5.0104304777E+01   7.1626314038E+01   1.0000000000E+01  3.704E-10  -1.
3000002    2    3    0    0    0   5.0057876407E+01  -3.7545326108E+00  -2.3262640841E+01   5.6223108812E+01   1.0000000000E+01  7.770E-10  -1.
3000001    1    4    0    0    0  -2.3731189151E+01   6.7206709383E+00   2.4698614065E+01   3.4919311178E+01   1.0000000000E+00     0.000   1.
3000022   2   4   0   0   0   -2.6326687256E+01   -2.9661383276E+00   2.5405690712E+01   3.6707002861E+01   2.5000000000E-01   3.255088E+00   0.
3000001    1    5    0    0    0   3.6463539773E+01  -4.3640909205E+00  -1.2283631856E+01   3.8736580050E+01   1.0000000000E+00     0.000  -1.
3000022   2   5   0   0   0   1.3594336634E+01   6.0955830974E-01   -1.0979008985E+01   1.7486528762E+01   2.5000000000E-01   5.543708E+00   0.
13    1    7    0    0    0  -1.9534131540E+01  -2.2316387213E+00   1.8853272487E+01   2.7240033313E+01   1.0500000000E-01     0.000   1.
-13    1    7    0    0    0  -6.7925557160E+00  -7.3449960632E-01   6.5524182251E+00   9.4669695481E+00   1.0500000000E-01     0.000  -1.
13    1    9    0    0    0   1.0276939808E+01   4.7372562665E-01  -8.2757082483E+00   1.3203722195E+01   1.0500000000E-01     0.000   1.
-13    1    9    0    0    0   3.3173968258E+00   1.3583268309E-01  -2.7033007367E+00   4.2828065670E+00   1.0500000000E-01     0.000  -1.
</event>
<event>
 13   1  9.2978750E-05  1.2500000E+02  7.5467720E-03  1.2380620E-01
   21   -1    0    0  502  501   0.0000000000E+00   0.0000000000E+00   2.3178872961E+01   2.3178872961E+01   0.0000000000E+00     0.000   1.
   21   -1    0    0  501  502   0.0000000000E+00   0.0000000000E+00  -1.6852631301E+02   1.6852631301E+02   0.0000000000E+00     0.000   1.
   25    2    1    2    0    0   0.0000000000E+00   0.0000000000E+00  -1.4534744005E+02   1.9170518597E+02   1.2500000000E+02  2.886E-08  -1.
3000002    2    3    0    0    0   1.4461194502E+01   5.9703843527E+01  -8.1426893516E+01   1.0248909242E+02   1.0000000000E+01  6.918E-11   1.
3000002    2    3    0    0    0  -1.4461194502E+01  -5.9703843527E+01  -6.3920546534E+01   8.9216093545E+01   1.0000000000E+01  8.550E-11   1.
3000001    1    4    0    0    0   4.0984146972E-01   3.3151306660E+00  -8.8543303621E+00   9.5161561318E+00   1.0000000000E+00     0.000   1.
3000022   2   4   0   0   0   1.4051353032E+01   5.6388712861E+01   -7.2572563154E+01   9.2972936293E+01   2.5000000000E-01   5.879083E-01   0.
3000001    1    5    0    0    0  -1.0249677685E+01  -5.0935049885E+01  -4.9143792178E+01   7.1523055787E+01   1.0000000000E+00     0.000   1.
3000022   2   5   0   0   0   -4.2115168174E+00   -8.7687936416E+00   -1.4776754355E+01   1.7693037758E+01   2.5000000000E-01   4.538308E+00   0.
13    1    7    0    0    0   3.4048724031E+00   1.3708746245E+01  -1.7609988647E+01   2.2575331776E+01   1.0500000000E-01     0.000   1.
-13    1    7    0    0    0   1.0646480629E+01   4.2679966616E+01  -5.4962574508E+01   7.0397604516E+01   1.0500000000E-01     0.000  -1.
13    1    9    0    0    0  -2.2546057491E+00  -4.5636687634E+00  -7.7987456710E+00   9.3135266525E+00   1.0500000000E-01     0.000  -1.
-13    1    9    0    0    0  -1.9569110684E+00  -4.2051248781E+00  -6.9780086845E+00   8.3795111057E+00   1.0500000000E-01     0.000   1.
</event>
<event>
 13   1  9.2978750E-05  1.2500000E+02  7.5467720E-03  1.2380620E-01
   21   -1    0    0  502  501   0.0000000000E+00   0.0000000000E+00   6.5811189987E+01   6.5811189987E+01   0.0000000000E+00     0.000  -1.
   21   -1    0    0  501  502   0.0000000000E+00   0.0000000000E+00  -5.9355407504E+01   5.9355407504E+01   0.0000000000E+00     0.000  -1.
   25    2    1    2    0    0   0.0000000000E+00   0.0000000000E+00   6.4557824832E+00   1.2516659749E+02   1.2500000000E+02  3.946E-08  -1.
3000002    2    3    0    0    0   2.3789989605E+01   4.4636336957E+01  -3.2144588785E+01   6.0758874006E+01   1.0000000000E+01  1.336E-09   1.
3000002    2    3    0    0    0  -2.3789989605E+01  -4.4636336957E+01   3.8600371269E+01   6.4407723484E+01   1.0000000000E+01  1.079E-09   1.
3000001    1    4    0    0    0   7.0114705034E+00   8.8944728809E+00  -3.2323356704E+00   1.1820336727E+01   1.0000000000E+00     0.000  -1.
3000022   2   4   0   0   0   1.6778519101E+01   3.5741864076E+01   -2.8912253115E+01   4.8938537279E+01   2.5000000000E-01   2.976361E+00   0.
3000001    1    5    0    0    0  -7.8602128165E+00  -2.4351026986E+01   2.1749510267E+01   3.3597569222E+01   1.0000000000E+00     0.000   1.
3000022   2   5   0   0   0   -1.5929776788E+01   -2.0285309971E+01   1.6850861002E+01   3.0810154262E+01   2.5000000000E-01   9.999711E-01   0.
13    1    7    0    0    0   7.9177883165E+00   1.6729031455E+01  -1.3594063022E+01   2.2964351497E+01   1.0500000000E-01     0.000  -1.
-13    1    7    0    0    0   8.8607307846E+00   1.9012832621E+01  -1.5318190093E+01   2.5974185782E+01   1.0500000000E-01     0.000   1.
13    1    9    0    0    0  -8.0180379663E+00  -1.0264902311E+01   8.5799719497E+00   1.5597566988E+01   1.0500000000E-01     0.000  -1.
-13    1    9    0    0    0  -7.9117388218E+00  -1.0020407660E+01   8.2708890520E+00   1.5212587274E+01   1.0500000000E-01     0.000   1.
</event>
<event>
 13   1  9.2978750E-05  1.2500000E+02  7.5467720E-03  1.2380620E-01
   21   -1    0    0  502  501   0.0000000000E+00   0.0000000000E+00   9.6156719409E+01   9.6156719409E+01   0.0000000000E+00     0.000   1.
   21   -1    0    0  501  502   0.0000000000E+00   0.0000000000E+00  -4.0623786086E+01   4.0623786086E+01   0.0000000000E+00     0.000   1.
   25    2    1    2    0    0   0.0000000000E+00   0.0000000000E+00   5.5532933324E+01   1.3678050550E+02   1.2500000000E+02  2.386E-08  -1.
3000002    2    3    0    0    0   5.9252700970E+01  -4.3193925391E+00   4.5968790443E+01   7.5780402605E+01   1.0000000000E+01  9.875E-11  -1.
3000002    2    3    0    0    0  -5.9252700970E+01   4.3193925391E+00   9.5641428813E+00   6.1000102895E+01   1.0000000000E+01  8.161E-10  -1.
3000001    1    4    0    0    0   8.8175525120E-01  -8.1088088471E-01   3.1304567766E-01   1.5915457042E+00   1.0000000000E+00     0.000   1.
3000022   2   4   0   0   0   5.8370945719E+01   -3.5085116543E+00   4.5655744765E+01   7.4188856901E+01   2.5000000000E-01   1.274678E+01   0.
3000001    1    5    0    0    0  -1.8401961339E+01   4.4668070153E+00   6.4506261679E+00   2.0029855816E+01   1.0000000000E+00     0.000   1.
3000022   2   5   0   0   0   -4.0850739631E+01   -1.4741447624E-01   3.1135167135E+00   4.0970247080E+01   2.5000000000E-01   8.084365E+00   0.
13    1    7    0    0    0   2.1840997628E+01  -1.2909964909E+00   1.7153412337E+01   2.7801914127E+01   1.0500000000E-01     0.000  -1.
-13    1    7    0    0    0   3.6529948091E+01  -2.2175151634E+00   2.8502332428E+01   4.6386942774E+01   1.0500000000E-01     0.000   1.
13    1    9    0    0    0  -2.1217816928E+01  -2.0315104810E-02   1.5794492678E+00   2.1276791414E+01   1.0500000000E-01     0.000  -1.
-13    1    9    0    0    0  -1.9632922703E+01  -1.2709937143E-01   1.5340674457E+00   1.9693455666E+01   1.0500000000E-01     0.000   1.
</event>
<event>
 13   1  9.2978750E-05  1.2500000E+02  7.5467720E-03  1.2380620E-01
   21   -1    0    0  502  501   0.0000000000E+00   0.0000000000E+00   1.2975713438E+01   1.2975713438E+01   0.0000000000E+00     0.000   1.
   21   -1    0    0  501  502   0.0000000000E+00   0.0000000000E+00  -3.0104317722E+02   3.0104317722E+02   0.0000000000E+00     0.000   1.
   25    2    1    2    0    0   0.0000000000E+00   0.0000000000E+00  -2.8806746378E+02   3.1401889066E+02   1.2500000000E+02  1.006E-07  -1.
3000002    2    3    0    0    0  -5.2339272723E+00   5.9549209479E+01  -1.0570817975E+02   1.2185122736E+02   1.0000000000E+01  2.939E-10   1.
3000002    2    3    0    0    0   5.2339272723E+00  -5.9549209479E+01  -1.8235928403E+02   1.9216766330E+02   1.0000000000E+01  1.500E-10   1.
3000001    1    4    0    0    0  -5.2512530678E-01   9.3882340104E+00  -1.0472163235E+01   1.4109603015E+01   1.0000000000E+00     0.000  -1.
3000022   2   4   0   0   0   -4.7088019656E+00   5.0160975468E+01   -9.5236016510E+01   1.0774162435E+02   2.5000000000E-01   1.298599E+01   0.
3000001    1    5    0    0    0  -1.2416348323E+00  -8.5745654585E+00  -1.8756043484E+01   2.0684631904E+01   1.0000000000E+00     0.000   1.
3000022   2   5   0   0   0   6.4755621047E+00   -5.0974644020E+01   -1.6360324055E+02   1.7148303140E+02   2.5000000000E-01   4.904556E+00   0.
13    1    7    0    0    0  -1.9988851643E+00   2.0779778532E+01  -3.9553042595E+01   4.4724142711E+01   1.0500000000E-01     0.000  -1.
-13    1    7    0    0    0  -2.7099168013E+00   2.9381196937E+01  -5.5682973915E+01   6.3017481634E+01   1.0500000000E-01     0.000   1.
13    1    9    0    0    0   4.9705935033E+00  -3.9019742871E+01  -1.2522846468E+02   1.3126091012E+02   1.0500000000E-01     0.000  -1.
-13    1    9    0    0    0   1.5049686014E+00  -1.1954901149E+01  -3.8374775872E+01   4.0222121279E+01   1.0500000000E-01     0.000   1.
</event>
<event>
 13   1  9.2978750E-05  1.2500000E+02  7.5467720E-03  1.2380620E-01
   21   -1    0    0  502  501   0.0000000000E+00   0.0000000000E+00   1.2683474484E+01   1.2683474484E+01   0.0000000000E+00     0.000  -1.
   21   -1    0    0  501  502   0.0000000000E+00   0.0000000000E+00  -3.0797948976E+02   3.0797948976E+02   0.0000000000E+00     0.000  -1.
   25    2    1    2    0    0   0.0000000000E+00   0.0000000000E+00  -2.9529601528E+02   3.2066296424E+02   1.2500000000E+02  8.250E-09  -1.
3000002    2    3    0    0    0  -5.4837959381E+01  -1.6132581690E+01  -2.0719334420E+02   2.1516631675E+02   1.0000000000E+01  3.528E-10   1.
3000002    2    3    0    0    0   5.4837959381E+01   1.6132581690E+01  -8.8102671076E+01   1.0549664749E+02   1.0000000000E+01  2.149E-10   1.
3000001    1    4    0    0    0  -6.6433892109E+00  -5.4328227435E+00  -2.8844355434E+01   3.0110579928E+01   1.0000000000E+00     0.000   1.
3000022   2   4   0   0   0   -4.8194570170E+01   -1.0699758946E+01   -1.7834898877E+02   1.8505573682E+02   2.5000000000E-01   1.043535E-01   0.
3000001    1    5    0    0    0   4.0303654332E+01   7.1595346201E+00  -6.2272381819E+01   7.4528471244E+01   1.0000000000E+00     0.000   1.
3000022   2   5   0   0   0   1.4534305049E+01   8.9730470699E+00   -2.5830289256E+01   3.0968176247E+01   2.5000000000E-01   4.528395E+00   0.
13    1    7    0    0    0  -2.6122735800E+01  -5.8489003267E+00  -9.6533805596E+01   1.0017681173E+02   1.0500000000E-01     0.000  -1.
-13    1    7    0    0    0  -2.2071834370E+01  -4.8508586198E+00  -8.1815183174E+01   8.4878925091E+01   1.0500000000E-01     0.000   1.
13    1    9    0    0    0   9.3803535569E+00   5.8577297713E+00  -1.6712512832E+01   2.0040537445E+01   1.0500000000E-01     0.000   1.
-13    1    9    0    0    0   5.1539514921E+00   3.1153172987E+00  -9.1177764245E+00   1.0927638802E+01   1.0500000000E-01     0.000  -1.
</event>
<event>
 13   1  9.2978750E-05  1.2500000E+02  7.5467720E-03  1.2380620E-01
   21   -1    0    0  502  501   0.0000000000E+00   0.0000000000E+00   2.8955997254E+02   2.8955997254E+02   0.0000000000E+00     0.000  -1.
   21   -1    0    0  501  502   0.0000000000E+00   0.0000000000E+00  -1.3490296900E+01   1.3490296900E+01   0.0000000000E+00     0.000  -1.
   25    2    1    2    0    0   0.0000000000E+00   0.0000000000E+00   2.7606967563E+02   3.0305026944E+02   1.2500000000E+02  1.891E-08  -1.
3000002    2    3    0    0    0   5.1928009813E+01  -1.2396282296E+01   2.1299804179E+02   2.1981435764E+02   1.0000000000E+01  7.662E-10  -1.
3000002    2    3    0    0    0  -5.1928009813E+01   1.2396282296E+01   6.3071633836E+01   8.3235911797E+01   1.0000000000E+01  3.692E-10  -1.
3000001    1    4    0    0    0   2.9070474425E+01  -7.0771154359E+00   1.3885520601E+02   1.4204557818E+02   1.0000000000E+00     0.000  -1.
3000022   2   4   0   0   0   2.2857535388E+01   -5.3191668602E+00   7.4142835787E+01   7.7768779460E+01   2.5000000000E-01   5.717583E+00   0.
3000001    1    5    0    0    0  -2.7758235813E+01   9.4392729259E+00   4.0680545616E+01   5.0155022883E+01   1.0000000000E+00     0.000  -1.
3000022   2   5   0   0   0   -2.4169774000E+01   2.9570093703E+00   2.2391088220E+01   3.3080888914E+01   2.5000000000E-01   2.028253E+00   0.
13    1    7    0    0    0   1.1912536959E+01  -2.7508337061E+00   3.8411935772E+01   4.0310835487E+01   1.0500000000E-01     0.000  -1.
-13    1    7    0    0    0   1.0944998429E+01  -2.5683331541E+00   3.5730900015E+01   3.7457943973E+01   1.0500000000E-01     0.000   1.
13    1    9    0    0    0  -6.1173361375E+00   7.5833838010E-01   5.6330332399E+00   8.3509859897E+00   1.0500000000E-01     0.000   1.
-13    1    9    0    0    0  -1.8052437863E+01   2.1986709902E+00   1.6758054980E+01   2.4729902924E+01   1.0500000000E-01     0.000  -1.
</event>
<event>
 13   1  9.2978750E-05  1.2500000E+02  7.5467720E-03  1.2380620E-01
   21   -1    0    0  502  501   0.0000000000E+00   0.0000000000E+00   2.8048360479E+00   2.8048360479E+00   0.0000000000E+00     0.000  -1.
   21   -1    0    0  501  502   0.0000000000E+00   0.0000000000E+00  -1.3926838978E+03   1.3926838978E+03   0.0000000000E+00     0.000  -1.
   25    2    1    2    0    0   0.0000000000E+00   0.0000000000E+00  -1.3898790618E+03   1.3954887339E+03   1.2500000000E+02  6.829E-08  -1.
3000002    2    3    0    0    0  -4.2033333272E+01   4.3523216730E+01  -8.2945352789E+02   8.3171763623E+02   1.0000000000E+01  9.630E-10   1.
3000002    2    3    0    0    0   4.2033333272E+01  -4.3523216730E+01  -5.6042553391E+02   5.6377109767E+02   1.0000000000E+01  5.624E-10   1.
3000001    1    4    0    0    0  -2.2597045899E+01   3.0067060264E+01  -4.9109660031E+02   4.9253581132E+02   1.0000000000E+00     0.000   1.
3000022   2   4   0   0   0   -1.9436287373E+01   1.3456156466E+01   -3.3835692758E+02   3.3918182492E+02   2.5000000000E-01   1.564839E+00   0.
3000001    1    5    0    0    0   7.9809309239E-01   6.2739997318E-02  -1.5240777446E+01   1.5294514901E+01   1.0000000000E+00     0.000  -1.
3000022   2   5   0   0   0   4.1235240180E+01   -4.3585956727E+01   -5.4518475647E+02   5.4847658277E+02   2.5000000000E-01   8.982993E+00   0.
13    1    7    0    0    0  -1.4667241217E+01   1.0134370143E+01  -2.5540652662E+02   2.5602800294E+02   1.0500000000E-01     0.000  -1.
-13    1    7    0    0    0  -4.7690461570E+00   3.3217863232E+00  -8.2950400956E+01   8.3153821977E+01   1.0500000000E-01     0.000   1.
13    1    9    0    0    0   3.1219096738E+01  -3.3002317612E+01  -4.1258224936E+02   4.1507578643E+02   1.0500000000E-01     0.000   1.
-13    1    9    0    0    0   1.0016143441E+01  -1.0583639115E+01  -1.3260250711E+02   1.3340079633E+02   1.0500000000E-01     0.000  -1.
</event>
<event>
 13   1  9.2978750E-05  1.2500000E+02  7.5467720E-03  1.2380620E-01
   21   -1    0    0  502  501   0.0000000000E+00   0.0000000000E+00   5.5824236217E+01   5.5824236217E+01   0.0000000000E+00     0.000  -1.
   21   -1    0    0  501  502   0.0000000000E+00   0.0000000000E+00  -6.9974087685E+01   6.9974087685E+01   0.0000000000E+00     0.000  -1.
   25    2    1    2    0    0   0.0000000000E+00   0.0000000000E+00  -1.4149851469E+01   1.2579832390E+02   1.2500000000E+02  5.939E-08  -1.
3000002    2    3    0    0    0  -6.1191407229E+01   7.1246193900E+00  -3.7217580105E+00   6.2521996152E+01   1.0000000000E+01  4.132E-10   1.
3000002    2    3    0    0    0   6.1191407229E+01  -7.1246193900E+00  -1.0428093458E+01   6.3276327748E+01   1.0000000000E+01  1.938E-10   1.
3000001    1    4    0    0    0  -1.9224104161E+01  -1.5277021686E+00  -3.7497680809E+00   1.9671319615E+01   1.0000000000E+00     0.000  -1.
3000022   2   4   0   0   0   -4.1967303068E+01   8.6523215586E+00   2.8010070427E-02   4.2850676537E+01   2.5000000000E-01   4.208102E+00   0.
3000001    1    5    0    0    0   1.3752915261E+01  -4.7506606076E+00   2.7345045676E-01   1.4587194026E+01   1.0000000000E+00     0.000   1.
3000022   2   5   0   0   0   4.7438491968E+01   -2.3739587824E+00   -1.0701543915E+01   4.8689133722E+01   2.5000000000E-01   2.013796E+01   0.
13    1    7    0    0    0  -2.8333548185E+01   5.7887449667E+00   2.3526635811E-02   2.8919043890E+01   1.0500000000E-01     0.000   1.
-13    1    7    0    0    0  -1.3633754883E+01   2.8635765919E+00   4.4834346158E-03   1.3931632647E+01   1.0500000000E-01     0.000  -1.
13    1    9    0    0    0   3.3375065912E+01  -1.7123283648E+00  -7.5136110092E+00   3.4253357039E+01   1.0500000000E-01     0.000  -1.
-13    1    9    0    0    0   1.4063426055E+01  -6.6163041759E-01  -3.1879329061E+00   1.4435776683E+01   1.0500000000E-01     0.000   1.
</event>
<event>
 13   1  9.2978750E-05  1.2500000E+02  7.5467720E-03  1.2380620E-01
   21   -1    0    0  502  501   0.0000000000E+00   0.0000000000E+00   1.2531283392E+02   1.2531283392E+02   0.0000000000E+00     0.000   1.
   21   -1    0    0  501  502   0.0000000000E+00   0.0000000000E+00  -3.1171986762E+01   3.1171986762E+01   0.0000000000E+00     0.000   1.
   25    2    1    2    0    0   0.0000000000E+00   0.0000000000E+00   9.4140847157E+01   1.5648482068E+02   1.2500000000E+02  3.334E-08  -1.
3000002    2    3    0    0    0  -3.1458235196E+00   5.4868573006E+01   1.1977753213E+01   5.7130754252E+01   1.0000000000E+01  8.528E-11   1.
3000002    2    3    0    0    0   3.1458235196E+00  -5.4868573006E+01   8.2163093944E+01   9.9354066428E+01   1.0000000000E+01  7.165E-10   1.
3000001    1    4    0    0    0  -4.4024082297E+00   1.5906506344E+01   7.0204230425E-01   1.6549652737E+01   1.0000000000E+00     0.000   1.
3000022   2   4   0   0   0   1.2565847101E+00   3.8962066662E+01   1.1275710909E+01   4.0581101515E+01   2.5000000000E-01   4.944944E-01   0.
3000001    1    5    0    0    0  -2.2205882635E+00  -2.6803091742E+01   4.5592712776E+01   5.2943670041E+01   1.0000000000E+00     0.000  -1.
3000022   2   5   0   0   0   5.3664117832E+00   -2.8065481264E+01   3.6570381169E+01   4.6410396387E+01   2.5000000000E-01   2.640113E+00   0.
13    1    7    0    0    0   3.8475580608E-01   1.1333493206E+01   3.2399256675E+00   1.1794246420E+01   1.0500000000E-01     0.000  -1.
-13    1    7    0    0    0   8.7182890405E-01   2.7628573456E+01   8.0357852411E+00   2.8786855096E+01   1.0500000000E-01     0.000   1.
13    1    9    0    0    0   3.3032527286E+00  -1.7140515691E+01   2.2432346936E+01   2.8424108971E+01   1.0500000000E-01     0.000   1.
-13    1    9    0    0    0   2.0631590545E+00  -1.0924965573E+01   1.4138034233E+01   1.7986287416E+01   1.0500000000E-01     0.000  -1.
</event>
<event>
 13   1  9.2978750E-05  1.2500000E+02  7.5467720E-03  1.2380620E-01
   21   -1    0    0  502  501   0.0000000000E+00   0.0000000000E+00   4.4964581811E+01   4.4964581811E+01   0.0000000000E+00     0.000   1.
   21   -1    0    0  501  502   0.0000000000E+00   0.0000000000E+00  -8.6873931497E+01   8.6873931497E+01   0.0000000000E+00     0.000   1.
   25    2    1    2    0    0   0.0000000000E+00   0.0000000000E+00  -4.1909349686E+01   1.3183851331E+02   1.2500000000E+02  5.683E-09  -1.
3000002    2    3    0    0    0   2.0765826245E+01   4.9377384164E+01   1.1328773818E+01   5.5656865909E+01   1.0000000000E+01  5.001E-10   1.
3000002    2    3    0    0    0  -2.0765826245E+01  -4.9377384164E+01  -5.3238123504E+01   7.6181647401E+01   1.0000000000E+01  4.265E-09   1.
3000001    1    4    0    0    0   1.1692193044E+01   1.6319380315E+01   5.8970420015E+00   2.0947664701E+01   1.0000000000E+00     0.000   1.
3000022   2   4   0   0   0   9.0736332009E+00   3.3058003849E+01   5.4317318169E+00   3.4709201208E+01   2.5000000000E-01   4.662186E+00   0.
3000001    1    5    0    0    0  -2.5214268240E+00  -9.6974378967E+00  -1.5380165081E+01   1.8383344987E+01   1.0000000000E+00     0.000  -1.
3000022   2   5   0   0   0   -1.8244399421E+01   -3.9679946267E+01   -3.7857958424E+01   5.7798302415E+01   2.5000000000E-01   3.049806E+00   0.
13    1    7    0    0    0   4.1669183485E+00   1.5400500101E+01   2.4934394442E+00   1.6148277839E+01   1.0500000000E-01     0.000   1.
-13    1    7    0    0    0   4.9067148524E+00   1.7657503748E+01   2.9382923727E+00   1.8560923369E+01   1.0500000000E-01     0.000  -1.
13    1    9    0    0    0  -1.3140775727E+01  -2.8517124796E+01  -2.7257899247E+01   4.1580169428E+01   1.0500000000E-01     0.000  -1.
-13    1    9    0    0    0  -5.1036236937E+00  -1.1162821471E+01  -1.0600059177E+01   1.6218132986E+01   1.0500000000E-01     0.000   1.
</event>
<event>
 13   1  9.2978750E-05  1.2500000E+02  7.5467720E-03  1.2380620E-01
   21   -1    0    0  502  501   0.0000000000E+00   0.0000000000E+00   5.6797618095E+01   5.6797618095E+01   0.0000000000E+00     0.000  -1.
   21   -1    0    0  501  502   0.0000000000E+00   0.0000000000E+00  -6.8774891114E+01   6.8774891114E+01   0.0000000000E+00     0.000  -1.
   25    2    1    2    0    0   0.0000000000E+00   0.0000000000E+00  -1.1977273018E+01   1.2557250921E+02   1.2500000000E+02  1.177E-07  -1.
3000002    2    3    0    0    0  -2.3831650817E+01  -3.4403711216E+01  -5.1524901306E+01   6.7129564133E+01   1.0000000000E+01  9.156E-10   1.
3000002    2    3    0    0    0   2.3831650817E+01   3.4403711216E+01   3.9547628288E+01   5.8442945077E+01   1.0000000000E+01  7.035E-10   1.
3000001    1    4    0    0    0  -1.5525932298E+01  -2.4641869552E+01  -4.2168461547E+01   5.1258711045E+01   1.0000000000E+00     0.000   1.
3000022   2   4   0   0   0   -8.3057185186E+00   -9.7618416636E+00   -9.3564397594E+00   1.5870853088E+01   2.5000000000E-01   1.426129E+01   0.
3000001    1    5    0    0    0   9.6297337744E+00   2.1941255077E+01   1.9672390775E+01   3.1018597739E+01   1.0000000000E+00     0.000  -1.
3000022   2   5   0   0   0   1.4201917043E+01   1.2462456139E+01   1.9875237514E+01   2.7424347338E+01   2.5000000000E-01   1.487996E+00   0.
13    1    7    0    0    0  -2.1526049740E+00  -2.5698874770E+00  -2.4238494464E+00   4.1381277115E+00   1.0500000000E-01     0.000   1.
-13    1    7    0    0    0  -6.1531135445E+00  -7.1919541866E+00  -6.9325903131E+00   1.1732725377E+01   1.0500000000E-01     0.000  -1.
13    1    9    0    0    0   9.7751597229E+00   8.6288067498E+00   1.3671765058E+01   1.8892809170E+01   1.0500000000E-01     0.000  -1.
-13    1    9    0    0    0   4.4267573199E+00   3.8336493890E+00   6.2034724558E+00   8.5315381683E+00   1.0500000000E-01     0.000   1.
</event>
<event>
 13   1  9.2978750E-05  1.2500000E+02  7.5467720E-03  1.2380620E-01
   21   -1    0    0  502  501   0.0000000000E+00   0.0000000000E+00   1.0845064472E+01   1.0845064472E+01   0.0000000000E+00     0.000  -1.
   21   -1    0    0  501  502   0.0000000000E+00   0.0000000000E+00  -3.6018688595E+02   3.6018688595E+02   0.0000000000E+00     0.000  -1.
   25    2    1    2    0    0   0.0000000000E+00   0.0000000000E+00  -3.4934182148E+02   3.7103195042E+02   1.2500000000E+02  1.274E-08  -1.
3000002    2    3    0    0    0  -2.9306725643E+01   1.5633887871E+01  -2.0351664977E+01   4.0218066652E+01   1.0000000000E+01  9.198E-10   1.
3000002    2    3    0    0    0   2.9306725643E+01  -1.5633887871E+01  -3.2899015650E+02   3.3081388377E+02   1.0000000000E+01  6.525E-10   1.
3000001    1    4    0    0    0  -1.6900804642E+01   3.5727705324E+00  -8.8013646574E+00   1.9413034452E+01   1.0000000000E+00     0.000   1.
3000022   2   4   0   0   0   -1.2405921001E+01   1.2061117339E+01   -1.1550300320E+01   2.0805032200E+01   2.5000000000E-01   6.332126E+00   0.
3000001    1    5    0    0    0   1.7349588766E+01  -3.7271203881E+00  -1.7657096340E+02   1.7746324908E+02   1.0000000000E+00     0.000  -1.
3000022   2   5   0   0   0   1.1957136877E+01   -1.1906767483E+01   -1.5241919310E+02   1.5335063469E+02   2.5000000000E-01   6.327589E+00   0.
13    1    7    0    0    0  -4.2725880043E+00   4.0775264715E+00  -3.9496861449E+00   7.1057917239E+00   1.0500000000E-01     0.000  -1.
-13    1    7    0    0    0  -8.1333329967E+00   7.9835908677E+00  -7.6006141746E+00   1.3699240476E+01   1.0500000000E-01     0.000   1.
13    1    9    0    0    0   3.0143604625E+00  -3.0267616579E+00  -3.8394427213E+01   3.8631473194E+01   1.0500000000E-01     0.000   1.
-13    1    9    0    0    0   8.9427764143E+00  -8.8800058255E+00  -1.1402476589E+02   1.1471916149E+02   1.0500000000E-01     0.000  -1.
</event>
<event>
 13   1  9.2978750E-05  1.2500000E+02  7.5467720E-03  1.2380620E-01
   21   -1    0    0  502  501   0.0000000000E+00   0.0000000000E+00   3.8699015775E+01   3.8699015775E+01   0.0000000000E+00     0.000   1.
   21   -1    0    0  501  502   0.0000000000E+00   0.0000000000E+00  -1.0093925961E+02   1.0093925961E+02   0.0000000000E+00     0.000   1.
   25    2    1    2    0    0   0.0000000000E+00   0.0000000000E+00  -6.2240243835E+01   1.3963827539E+02   1.2500000000E+02  2.591E-08  -1.
3000002    2    3    0    0    0   1.5000902565E+01   3.8096015117E+00  -9.7835869134E+01   9.9556001479E+01   1.0000000000E+01  3.958E-10  -1.
3000002    2    3    0    0    0  -1.5000902565E+01  -3.8096015117E+00   3.5595625299E+01   4.0082273911E+01   1.0000000000E+01  6.301E-10  -1.
3000001    1    4    0    0    0   4.6561010406E+00   6.1636070648E+00  -4.4013613256E+01   4.4697510902E+01   1.0000000000E+00     0.000  -1.
3000022   2   4   0   0   0   1.0344801524E+01   -2.3540055531E+00   -5.3822255877E+01   5.4858490577E+01   2.5000000000E-01   5.710374E+00   0.
3000001    1    5    0    0    0  -1.1478279142E+01  -5.0729351213E+00   1.7239002008E+01   2.1346399065E+01   1.0000000000E+00     0.000   1.
3000022   2   5   0   0   0   -3.5226234222E+00   1.2633336095E+00   1.8356623291E+01   1.8735874846E+01   2.5000000000E-01   4.167308E+00   0.
13    1    7    0    0    0   7.3451695362E+00  -1.6872833614E+00  -3.8433797231E+01   3.9165881009E+01   1.0500000000E-01     0.000  -1.
-13    1    7    0    0    0   2.9996319879E+00  -6.6672219176E-01  -1.5388458647E+01   1.5692609568E+01   1.0500000000E-01     0.000   1.
13    1    9    0    0    0  -2.5602948720E+00   9.3046227010E-01   1.3519093748E+01   1.3791221506E+01   1.0500000000E-01     0.000  -1.
-13    1    9    0    0    0  -9.6232855019E-01   3.3287133943E-01   4.8375295433E+00   4.9446533397E+00   1.0500000000E-01     0.000   1.
</event>
<event>
 13   1  9.2978750E-05  1.2500000E+02  7.5467720E-03  1.2380620E-01
   21   -1    0    0  502  501   0.0000000000E+00   0.0000000000E+00   1.8312951345E+02   1.8312951345E+02   0.0000000000E+00     0.000  -1.
   21   -1    0    0  501  502   0.0000000000E+00   0.0000000000E+00  -2.1330532290E+01   2.1330532290E+01   0.0000000000E+00     0.000  -1.
   25    2    1    2    0    0   0.0000000000E+00   0.0000000000E+00   1.6179898116E+02   2.0446004574E+02   1.2500000000E+02  2.329E-08  -1.
3000002    2    3    0    0    0  -1.4677949413E+01   5.2156243992E+01   3.2639046607E+01   6.4039232895E+01   1.0000000000E+01  4.278E-10   1.
3000002    2    3    0    0    0   1.4677949413E+01  -5.2156243992E+01   1.2915993455E+02   1.4042081285E+02   1.0000000000E+01  7.770E-10   1.
3000001    1    4    0    0    0  -2.5033230392E+00   2.1098490901E+01   8.7074935268E+00   2.2983328481E+01   1.0000000000E+00     0.000   1.
3000022   2   4   0   0   0   -1.2174626374E+01   3.1057753091E+01   2.3931553080E+01   4.1055904414E+01   2.5000000000E-01   4.158627E-01   0.
3000001    1    5    0    0    0   1.0767726559E+01  -3.9090029952E+01   8.4600291767E+01   9.3819953869E+01   1.0000000000E+00     0.000  -1.
3000022   2   5   0   0   0   3.9102228543E+00   -1.3066214041E+01   4.4559642786E+01   4.6600858976E+01   2.5000000000E-01   8.708609E-02   0.
13    1    7    0    0    0  -4.6324958314E+00   1.1818648940E+01   9.0319732206E+00   1.5579731886E+01   1.0500000000E-01     0.000   1.
-13    1    7    0    0    0  -7.5421305427E+00   1.9239104151E+01   1.4899579860E+01   2.5476172527E+01   1.0500000000E-01     0.000  -1.
13    1    9    0    0    0   1.8815181668E+00  -6.1134885360E+00   2.1052999078E+01   2.2003514444E+01   1.0500000000E-01     0.000   1.
-13    1    9    0    0    0   2.0287046875E+00  -6.9527255045E+00   2.3506643707E+01   2.4597344532E+01   1.0500000000E-01     0.000  -1.
</event>
<event>
 13   1  9.2978750E-05  1.2500000E+02  7.5467720E-03  1.2380620E-01
   21   -1    0    0  502  501   0.0000000000E+00   0.0000000000E+00   3.1856652810E+02   3.1856652810E+02   0.0000000000E+00     0.000  -1.
   21   -1    0    0  501  502   0.0000000000E+00   0.0000000000E+00  -1.2261959922E+01   1.2261959922E+01   0.0000000000E+00     0.000  -1.
   25    2    1    2    0    0   0.0000000000E+00   0.0000000000E+00   3.0630456818E+02   3.3082848802E+02   1.2500000000E+02  1.412E-08  -1.
3000002    2    3    0    0    0   6.1530211514E+01   2.8115165051E+00   1.6246391899E+02   1.7403561856E+02   1.0000000000E+01  6.099E-10   1.
3000002    2    3    0    0    0  -6.1530211514E+01  -2.8115165051E+00   1.4384064919E+02   1.5679286946E+02   1.0000000000E+01  6.949E-10   1.
3000001    1    4    0    0    0   5.5178024659E+01   5.5235824349E+00   1.4600478116E+02   1.5618425173E+02   1.0000000000E+00     0.000   1.
3000022   2   4   0   0   0   6.3521868554E+00   -2.7120659298E+00   1.6459137831E+01   1.7851366827E+01   2.5000000000E-01   4.663702E+00   0.
3000001    1    5    0    0    0  -1.0289699371E+01   6.1281984802E-01   3.3947812705E+01   3.5492357611E+01   1.0000000000E+00     0.000  -1.
3000022   2   5   0   0   0   -5.1240512143E+01   -3.4243363531E+00   1.0989283649E+02   1.2130051185E+02   2.5000000000E-01   1.477274E+01   0.
13    1    7    0    0    0   2.5447254641E+00  -1.0813326933E+00   6.7534550762E+00   7.2982935367E+00   1.0500000000E-01     0.000  -1.
-13    1    7    0    0    0   3.8074613913E+00  -1.6307332365E+00   9.7056827550E+00   1.0553073291E+01   1.0500000000E-01     0.000   1.
13    1    9    0    0    0  -1.8770686290E+01  -1.3045730887E+00   4.0190060561E+01   4.4376711996E+01   1.0500000000E-01     0.000   1.
-13    1    9    0    0    0  -3.2469825853E+01  -2.1197632644E+00   6.9702775928E+01   7.6923799856E+01   1.0500000000E-01     0.000  -1.
</event>
<event>
 13   1  9.2978750E-05  1.2500000E+02  7.5467720E-03  1.2380620E-01
   21   -1    0    0  502  501   0.0000000000E+00   0.0000000000E+00   1.0537439885E+02   1.0537439885E+02   0.0000000000E+00     0.000  -1.
   21   -1    0    0  501  502   0.0000000000E+00   0.0000000000E+00  -3.7070199619E+01   3.7070199619E+01   0.0000000000E+00     0.000  -1.
   25    2    1    2    0    0   0.0000000000E+00   0.0000000000E+00   6.8304199229E+01   1.4244459847E+02   1.2500000000E+02  2.075E-07  -1.
3000002    2    3    0    0    0  -1.2072215245E+01   4.0009412505E+01   8.5870386083E+01   9.6021948928E+01   1.0000000000E+01  3.682E-10   1.
3000002    2    3    0    0    0   1.2072215245E+01  -4.0009412505E+01  -1.7566186854E+01   4.6422649542E+01   1.0000000000E+01  2.124E-09   1.
3000001    1    4    0    0    0  -4.6568276397E+00   3.0651877805E+01   6.1113381092E+01   6.8535166193E+01   1.0000000000E+00     0.000   1.
3000022   2   4   0   0   0   -7.4153876048E+00   9.3575347004E+00   2.4757004991E+01   2.7486782735E+01   2.5000000000E-01   8.522171E+00   0.
3000001    1    5    0    0    0   9.2794224207E+00  -3.8276807762E+01  -1.7540556914E+01   4.3126474813E+01   1.0000000000E+00     0.000  -1.
3000022   2   5   0   0   0   2.7927928238E+00   -1.7326047431E+00   -2.5629939834E-02   3.2961747294E+00   2.5000000000E-01   5.211601E+00   0.
13    1    7    0    0    0  -4.6495857437E+00   5.7794586703E+00   1.5317976093E+01   1.7019759302E+01   1.0500000000E-01     0.000  -1.
-13    1    7    0    0    0  -2.7658018612E+00   3.5780760301E+00   9.4390288971E+00   1.0467023432E+01   1.0500000000E-01     0.000   1.
13    1    9    0    0    0   8.1018075438E-01  -4.6673617604E-01   2.0608850592E-02   9.4110851527E-01   1.0500000000E-01     0.000  -1.
-13    1    9    0    0    0   1.9826120694E+00  -1.2658685671E+00  -4.6238790425E-02   2.3550662141E+00   1.0500000000E-01     0.000   1.
</event>
<event>
 13   1  9.2978750E-05  1.2500000E+02  7.5467720E-03  1.2380620E-01
   21   -1    0    0  502  501   0.0000000000E+00   0.0000000000E+00   3.9216282543E+02   3.9216282543E+02   0.0000000000E+00     0.000   1.
   21   -1    0    0  501  502   0.0000000000E+00   0.0000000000E+00  -9.9607860477E+00   9.9607860477E+00   0.0000000000E+00     0.000   1.
   25    2    1    2    0    0   0.0000000000E+00   0.0000000000E+00   3.8220203939E+02   4.0212361148E+02   1.2500000000E+02  7.331E-09  -1.
3000002    2    3    0    0    0  -6.1143173615E+01  -8.1909485855E+00   1.9373557563E+02   2.0356584336E+02   1.0000000000E+01  6.442E-10  -1.
3000002    2    3    0    0    0   6.1143173615E+01   8.1909485855E+00   1.8846646376E+02   1.9855776812E+02   1.0000000000E+01  1.954E-10  -1.
3000001    1    4    0    0    0  -1.0326303979E+01  -2.3419663873E+00   4.6389890110E+01   4.7593479226E+01   1.0000000000E+00     0.000   1.
3000022   2   4   0   0   0   -5.0816869636E+01   -5.8489821982E+00   1.4734568552E+02   1.5597236413E+02   2.5000000000E-01   2.410113E-01   0.
3000001    1    5    0    0    0   1.1154488445E+01  -7.8025197362E-01   2.5528077611E+01   2.7887526819E+01   1.0000000000E+00     0.000  -1.
3000022   2   5   0   0   0   4.9988685170E+01   8.9712005591E+00   1.6293838615E+02   1.7067024130E+02   2.5000000000E-01   1.317479E+01   0.
13    1    7    0    0    0  -3.5558575789E+01  -4.0656051198E+00   1.0320723639E+02   1.0923683503E+02   1.0500000000E-01     0.000  -1.
-13    1    7    0    0    0  -1.5258293847E+01  -1.7833770784E+00   4.4138449121E+01   4.6735529105E+01   1.0500000000E-01     0.000   1.
13    1    9    0    0    0   2.1823188427E+01   3.8538391619E+00   7.1175928543E+01   7.4546143149E+01   1.0500000000E-01     0.000  -1.
-13    1    9    0    0    0   2.8165496743E+01   5.1173613972E+00   9.1762457610E+01   9.6124098155E+01   1.0500000000E-01     0.000   1.
</event>
<event>
 13   1  9.2978750E-05  1.2500000E+02  7.5467720E-03  1.2380620E-01
   21   -1    0    0  502  501   0.0000000000E+00   0.0000000000E+00   4.2710957229E+02   4.2710957229E+02   0.0000000000E+00     0.000  -1.
   21   -1    0    0  501  502   0.0000000000E+00   0.0000000000E+00  -9.1457795691E+00   9.1457795691E+00   0.0000000000E+00     0.000  -1.
   25    2    1    2    0    0   0.0000000000E+00   0.0000000000E+00   4.1796379272E+02   4.3625535186E+02   1.2500000000E+02  1.079E-08  -1.
3000002    2    3    0    0    0  -1.0315984179E+01   1.4228389800E-01   4.2126746869E+02   4.2151241968E+02   1.0000000000E+01  2.411E-09   1.
3000002    2    3    0    0    0   1.0315984179E+01  -1.4228389800E-01  -3.3036759657E+00   1.4742932177E+01   1.0000000000E+01  7.445E-10   1.
3000001    1    4    0    0    0  -3.4514187458E+00   9.1653375543E-01   3.7546716398E+01   3.7729408129E+01   1.0000000000E+00     0.000  -1.
3000022   2   4   0   0   0   -6.8645654331E+00   -7.7424985744E-01   3.8372075229E+02   3.8378301155E+02   2.5000000000E-01   4.882329E+00   0.
3000001    1    5    0    0    0   7.8410998093E+00  -1.5899338184E+00  -6.5618757667E+00   1.0395621643E+01   1.0000000000E+00     0.000   1.
3000022   2   5   0   0   0   2.4748843696E+00   1.4476499204E+00   3.2581998010E+00   4.3473105339E+00   2.5000000000E-01   2.215898E+01   0.
13    1    7    0    0    0  -1.7959502495E+00  -2.0115921129E-01   9.8702734004E+01   9.8719332591E+01   1.0500000000E-01     0.000  -1.
-13    1    7    0    0    0  -5.0686151836E+00  -5.7309064615E-01   2.8501801828E+02   2.8506367896E+02   1.0500000000E-01     0.000   1.
13    1    9    0    0    0   1.5478529539E+00   9.4583386413E-01   1.9853878885E+00   2.6913269094E+00   1.0500000000E-01     0.000   1.
-13    1    9    0    0    0   9.2703141572E-01   5.0181605628E-01   1.2728119126E+00   1.6559836246E+00   1.0500000000E-01     0.000  -1.
</event>
<event>
 13   1  9.2978750E-05  1.2500000E+02  7.5467720E-03  1.2380620E-01
   21   -1    0    0  502  501   0.0000000000E+00   0.0000000000E+00   5.9561196742E+00   5.9561196742E+00   0.0000000000E+00     0.000   1.
   21   -1    0    0  501  502   0.0000000000E+00   0.0000000000E+00  -6.5583806466E+02   6.5583806466E+02   0.0000000000E+00     0.000   1.
   25    2    1    2    0    0   0.0000000000E+00   0.0000000000E+00  -6.4988194498E+02   6.6179418433E+02   1.2500000000E+02  2.787E-08  -1.
3000002    2    3    0    0    0   6.6184364907E+00  -4.7257872156E+01  -1.1790942325E+02   1.2759209331E+02   1.0000000000E+01  3.301E-10   1.
3000002    2    3    0    0    0  -6.6184364907E+00   4.7257872156E+01  -5.3197252173E+02   5.3420209102E+02   1.0000000000E+01  2.359E-09   1.
3000001    1    4    0    0    0   1.8517117629E+00  -2.7884142586E+01  -5.6849353679E+01   6.3354583559E+01   1.0000000000E+00     0.000   1.
3000022   2   4   0   0   0   4.7667247279E+00   -1.9373729569E+01   -6.1060069574E+01   6.4237509747E+01   2.5000000000E-01   4.707515E+00   0.
3000001    1    5    0    0    0  -1.2395657881E+00   3.6130788772E+01  -4.1777178002E+02   4.1933427072E+02   1.0000000000E+00     0.000   1.
3000022   2   5   0   0   0   -5.3788707026E+00   1.1127083384E+01   -1.1420074171E+02   1.1486782030E+02   2.5000000000E-01   3.490248E+00   0.
13    1    7    0    0    0   2.5368292275E+00  -1.0286715707E+01  -3.2208443507E+01   3.3906443056E+01   1.0500000000E-01     0.000   1.
-13    1    7    0    0    0   2.2298955004E+00  -9.0870138622E+00  -2.8851626067E+01   3.0331066691E+01   1.0500000000E-01     0.000  -1.
13    1    9    0    0    0  -2.8186847531E+00   5.7018376045E+00  -5.8418507128E+01   5.8763840377E+01   1.0500000000E-01     0.000  -1.
-13    1    9    0    0    0  -2.5601859495E+00   5.4252457792E+00  -5.5782234578E+01   5.6103979924E+01   1.0500000000E-01     0.000   1.
</event>
<event>
 13   1  9.2978750E-05  1.2500000E+02  7.5467720E-03  1.2380620E-01
   21   -1    0    0  502  501   0.0000000000E+00   0.0000000000E+00   7.6532384231E+01   7.6532384231E+01   0.0000000000E+00     0.000  -1.
   21   -1    0    0  501  502   0.0000000000E+00   0.0000000000E+00  -5.1040484878E+01   5.1040484878E+01   0.0000000000E+00     0.000  -1.
   25    2    1    2    0    0   0.0000000000E+00   0.0000000000E+00   2.5491899353E+01   1.2757286911E+02   1.2500000000E+02  2.795E-08  -1.
3000002    2    3    0    0    0  -4.7860702729E+01  -1.3188044597E+01  -2.4636913272E+01   5.6316506298E+01   1.0000000000E+01  1.645E-13  -1.
3000002    2    3    0    0    0   4.7860702729E+01   1.3188044597E+01   5.0128812625E+01   7.1256362812E+01   1.0000000000E+01  1.351E-09  -1.
3000001    1    4    0    0    0  -2.0540494679E+01  -9.8377063555E+00  -1.4316254193E+01   2.6919277890E+01   1.0000000000E+00     0.000  -1.
3000022   2   4   0   0   0   -2.7320208051E+01   -3.3503382416E+00   -1.0320659079E+01   2.9397228408E+01   2.5000000000E-01   6.828589E-02   0.
3000001    1    5    0    0    0   3.0291907111E+01   5.9088880407E+00   2.4933362452E+01   3.9688627558E+01   1.0000000000E+00     0.000  -1.
3000022   2   5   0   0   0   1.7568795619E+01   7.2791565564E+00   2.5195450173E+01   3.1567735254E+01   2.5000000000E-01   2.508778E+00   0.
13    1    7    0    0    0  -2.0865519963E+01  -2.5482742350E+00  -7.8687015609E+00   2.2445291581E+01   1.0500000000E-01     0.000  -1.
-13    1    7    0    0    0  -6.4546880877E+00  -8.0206400661E-01  -2.4519575176E+00   6.9519368271E+00   1.0500000000E-01     0.000   1.
13    1    9    0    0    0   1.0273863447E+01   4.2212185180E+00   1.4807589179E+01   1.8510717928E+01   1.0500000000E-01     0.000  -1.
-13    1    9    0    0    0   7.2949321715E+00   3.0579380384E+00   1.0387860994E+01   1.3057017327E+01   1.0500000000E-01     0.000   1.
</event>
<event>
 13   1  9.2978750E-05  1.2500000E+02  7.5467720E-03  1.2380620E-01
   21   -1    0    0  502  501   0.0000000000E+00   0.0000000000E+00   5.0071050665E+00   5.0071050665E+00   0.0000000000E+00     0.000  -1.
   21   -1    0    0  501  502   0.0000000000E+00   0.0000000000E+00  -7.8014140868E+02   7.8014140868E+02   0.0000000000E+00     0.000  -1.
   25    2    1    2    0    0   0.0000000000E+00   0.0000000000E+00  -7.7513430361E+02   7.8514851375E+02   1.2500000000E+02  5.582E-08  -1.
3000002    2    3    0    0    0  -4.1344836342E+01  -3.1520007035E+01  -1.7892733003E+02   1.8659554058E+02   1.0000000000E+01  2.259E-10   1.
3000002    2    3    0    0    0   4.1344836342E+01   3.1520007035E+01  -5.9620697359E+02   5.9855297317E+02   1.0000000000E+01  1.820E-10   1.
3000001    1    4    0    0    0  -3.9727389550E+01  -2.9972632671E+01  -1.7599219166E+02   1.8289580562E+02   1.0000000000E+00     0.000   1.
3000022   2   4   0   0   0   -1.6174467913E+00   -1.5473743641E+00   -2.9351383672E+00   3.6997349607E+00   2.5000000000E-01   4.806795E+00   0.
3000001    1    5    0    0    0   3.3687664788E+00   6.6556441024E+00  -7.8741530379E+01   7.9100409559E+01   1.0000000000E+00     0.000  -1.
3000022   2   5   0   0   0   3.7976069863E+01   2.4864362933E+01   -5.1746544321E+02   5.1945256361E+02   2.5000000000E-01   5.502056E+00   0.
13    1    7    0    0    0  -1.2301839668E+00  -1.1789093748E+00  -2.2570605293E+00   2.8299341228E+00   1.0500000000E-01     0.000   1.
-13    1    7    0    0    0  -3.8726282452E-01  -3.6846498921E-01  -6.7807783784E-01   8.6980083795E-01   1.0500000000E-01     0.000  -1.
13    1    9    0    0    0   1.2258519020E+01   8.0508090504E+00  -1.6773154885E+02   1.6837152467E+02   1.0500000000E-01     0.000   1.
-13    1    9    0    0    0   2.5717550843E+01   1.6813553882E+01  -3.4973389436E+02   3.5108103894E+02   1.0500000000E-01     0.000  -1.
</event>
<event>
 13   1  9.2978750E-05  1.2500000E+02  7.5467720E-03  1.2380620E-01
   21   -1    0    0  502  501   0.0000000000E+00   0.0000000000E+00   2.0615410330E+02   2.0615410330E+02   0.0000000000E+00     0.000  -1.
   21   -1    0    0  501  502   0.0000000000E+00   0.0000000000E+00  -1.8948203977E+01   1.8948203977E+01   0.0000000000E+00     0.000  -1.
   25    2    1    2    0    0   0.0000000000E+00   0.0000000000E+00   1.8720589932E+02   2.2510230728E+02   1.2500000000E+02  8.871E-09  -1.
3000002    2    3    0    0    0  -2.4320415390E+01   5.5422968777E+01   7.2063630578E+01   9.4638020504E+01   1.0000000000E+01  6.351E-10  -1.
3000002    2    3    0    0    0   2.4320415390E+01  -5.5422968777E+01   1.1514226874E+02   1.3046428678E+02   1.0000000000E+01  1.111E-10  -1.
3000001    1    4    0    0    0  -1.5428466718E+01   2.7332484966E+01   4.3048732225E+01   5.3285041671E+01   1.0000000000E+00     0.000   1.
3000022   2   4   0   0   0   -8.8919486725E+00   2.8090483812E+01   2.9014898353E+01   4.1352978833E+01   2.5000000000E-01   5.402619E+00   0.
3000001    1    5    0    0    0   8.5892712386E+00  -3.1104383882E+01   5.7027781339E+01   6.5531871036E+01   1.0000000000E+00     0.000   1.
3000022   2   5   0   0   0   1.5731144152E+01   -2.4318584896E+01   5.8114487403E+01   6.4932415739E+01   2.5000000000E-01   6.071902E+00   0.
13    1    7    0    0    0  -3.7724008362E+00   1.1708493499E+01   1.2133534962E+01   1.7278701448E+01   1.0500000000E-01     0.000   1.
-13    1    7    0    0    0  -5.1195478363E+00   1.6381990313E+01   1.6881363391E+01   2.4074277385E+01   1.0500000000E-01     0.000  -1.
13    1    9    0    0    0   4.1757732869E+00  -6.5082421839E+00   1.5560162119E+01   1.7375959514E+01   1.0500000000E-01     0.000   1.
-13    1    9    0    0    0   1.1555370865E+01  -1.7810342712E+01   4.2554325283E+01   4.7556456225E+01   1.0500000000E-01     0.000  -1.
</event>
<event>
 13   1  9.2978750E-05  1.2500000E+02  7.5467720E-03  1.2380620E-01
   21   -1    0    0  502  501   0.0000000000E+00   0.0000000000E+00   1.2634640399E+01   1.2634640399E+01   0.0000000000E+00     0.000  -1.
   21   -1    0    0  501  502   0.0000000000E+00   0.0000000000E+00  -3.0916985975E+02   3.0916985975E+02   0.0000000000E+00     0.000  -1.
   25    2    1    2    0    0   0.0000000000E+00   0.0000000000E+00  -2.9653521935E+02   3.2180450014E+02   1.2500000000E+02  9.234E-08  -1.
3000002    2    3    0    0    0   3.2086334952E+01   5.0257611096E+01  -1.8904537855E+02   1.9847799756E+02   1.0000000000E+01  4.111E-10   1.
3000002    2    3    0    0    0  -3.2086334952E+01  -5.0257611096E+01  -1.0748984080E+02   1.2332650258E+02   1.0000000000E+01  4.447E-10   1.
3000001    1    4    0    0    0   2.5709325099E+00   1.0473610555E+01  -3.8281126676E+01   3.9783801624E+01   1.0000000000E+00     0.000   1.
3000022   2   4   0   0   0   2.9515402442E+01   3.9784000541E+01   -1.5076425188E+02   1.5869419594E+02   2.5000000000E-01   1.465203E+00   0.
3000001    1    5    0    0    0  -5.1945631532E+00  -3.4733036010E+00  -8.6868348627E+00   1.0747484552E+01   1.0000000000E+00     0.000  -1.
3000022   2   5   0   0   0   -2.6891771798E+01   -4.6784307495E+01   -9.8803005934E+01   1.1257901803E+02   2.5000000000E-01   7.512525E-01   0.
13    1    7    0    0    0   8.0138822009E+00   1.0830523096E+01  -4.0901135406E+01   4.3063168032E+01   1.0500000000E-01     0.000   1.
-13    1    7    0    0    0   2.1501520241E+01   2.8953477445E+01  -1.0986311647E+02   1.1563102791E+02   1.0500000000E-01     0.000  -1.
13    1    9    0    0    0  -1.8253853597E+01  -3.1848054217E+01  -6.7164592445E+01   7.6541460868E+01   1.0500000000E-01     0.000   1.
-13    1    9    0    0    0  -8.6379182011E+00  -1.4936253278E+01  -3.1638413489E+01   3.6037557158E+01   1.0500000000E-01     0.000  -1.
</event>
<event>
 13   1  9.2978750E-05  1.2500000E+02  7.5467720E-03  1.2380620E-01
   21   -1    0    0  502  501   0.0000000000E+00   0.0000000000E+00   2.3941205638E+02   2.3941205638E+02   0.0000000000E+00     0.000  -1.
   21   -1    0    0  501  502   0.0000000000E+00   0.0000000000E+00  -1.6316012063E+01   1.6316012063E+01   0.0000000000E+00     0.000  -1.
   25    2    1    2    0    0   0.0000000000E+00   0.0000000000E+00   2.2309604432E+02   2.5572806844E+02   1.2500000000E+02  1.607E-08  -1.
3000002    2    3    0    0    0   3.3563738369E+01   5.1756788323E+01   1.1355285547E+02   1.2961304200E+02   1.0000000000E+01  7.708E-11   1.
3000002    2    3    0    0    0  -3.3563738369E+01  -5.1756788323E+01   1.0954318885E+02   1.2611502644E+02   1.0000000000E+01  1.289E-11   1.
3000001    1    4    0    0    0   1.0403000483E+01   1.0916814036E+01   2.1529303168E+01   2.6304184888E+01   1.0000000000E+00     0.000   1.
3000022   2   4   0   0   0   2.3160737887E+01   4.0839974287E+01   9.2023552307E+01   1.0330885712E+02   2.5000000000E-01   3.844985E+00   0.
3000001    1    5    0    0    0  -2.8381277423E+00  -2.2131854112E+00   3.5832117453E+00   5.1761535099E+00   1.0000000000E+00     0.000  -1.
3000022   2   5   0   0   0   -3.0725610627E+01   -4.9543602912E+01   1.0595997710E+02   1.2093887293E+02   2.5000000000E-01   3.189824E-01   0.
13    1    7    0    0    0   1.5164682473E+01   2.6779632275E+01   6.0434417355E+01   6.7819216490E+01   1.0500000000E-01     0.000  -1.
-13    1    7    0    0    0   7.9960554140E+00   1.4060342013E+01   3.1589134952E+01   3.5489640626E+01   1.0500000000E-01     0.000   1.
13    1    9    0    0    0  -1.4237423175E+01  -2.3082569769E+01   4.9318727438E+01   5.6283720088E+01   1.0500000000E-01     0.000  -1.
-13    1    9    0    0    0  -1.6488187452E+01  -2.6461033143E+01   5.6641249662E+01   6.4655152839E+01   1.0500000000E-01     0.000   1.
</event>
<event>
 13   1  9.2978750E-05  1.2500000E+02  7.5467720E-03  1.2380620E-01
   21   -1    0    0  502  501   0.0000000000E+00   0.0000000000E+00   1.2434683781E+01   1.2434683781E+01   0.0000000000E+00     0.000  -1.
   21   -1    0    0  501  502   0.0000000000E+00   0.0000000000E+00  -3.1414148271E+02   3.1414148271E+02   0.0000000000E+00     0.000  -1.
   25    2    1    2    0    0   0.0000000000E+00   0.0000000000E+00  -3.0170679893E+02   3.2657616650E+02   1.2500000000E+02  2.113E-08  -1.
3000002    2    3    0    0    0   1.6659543239E+01   2.8595204287E+01  -2.8688541968E+02   2.8896101833E+02   1.0000000000E+01  1.438E-11   1.
3000002    2    3    0    0    0  -1.6659543239E+01  -2.8595204287E+01  -1.4821379253E+01   3.7615148173E+01   1.0000000000E+01  1.174E-09   1.
3000001    1    4    0    0    0   1.7982059773E+00  -2.3697191078E-01  -2.1845228523E+01   2.1943192786E+01   1.0000000000E+00     0.000  -1.
3000022   2   4   0   0   0   1.4861337262E+01   2.8832176198E+01   -2.6504019115E+02   2.6701782554E+02   2.5000000000E-01   4.015085E+00   0.
3000001    1    5    0    0    0  -8.0043953210E+00  -6.0301766117E+00  -6.7895489433E+00   1.2146248362E+01   1.0000000000E+00     0.000  -1.
3000022   2   5   0   0   0   -8.6551479180E+00   -2.2565027675E+01   -8.0318303098E+00   2.5468899811E+01   2.5000000000E-01   4.634396E+00   0.
13    1    7    0    0    0   8.8902852187E+00   1.7184172019E+01  -1.5762388078E+02   1.5880690085E+02   1.0500000000E-01     0.000   1.
-13    1    7    0    0    0   5.9710520429E+00   1.1648004179E+01  -1.0741631037E+02   1.0821092469E+02   1.0500000000E-01     0.000  -1.
13    1    9    0    0    0  -6.5528054911E+00  -1.7018546537E+01  -6.0592455315E+00   1.9217067087E+01   1.0500000000E-01     0.000   1.
-13    1    9    0    0    0  -2.1023424269E+00  -5.5464811385E+00  -1.9725847784E+00   6.2518327239E+00   1.0500000000E-01     0.000  -1.
</event>
<event>
 13   1  9.2978750E-05  1.2500000E+02  7.5467720E-03  1.2380620E-01
   21   -1    0    0  502  501   0.0000000000E+00   0.0000000000E+00   1.1076686729E+01   1.1076686729E+01   0.0000000000E+00     0.000  -1.
   21   -1    0    0  501  502   0.0000000000E+00   0.0000000000E+00  -3.5265509403E+02   3.5265509403E+02   0.0000000000E+00     0.000  -1.
   25    2    1    2    0    0   0.0000000000E+00   0.0000000000E+00  -3.4157840730E+02   3.6373178076E+02   1.2500000000E+02  8.476E-09  -1.
3000002    2    3    0    0    0   1.3406128193E+01   6.0024673090E+01  -1.5666386247E+02   1.6860086434E+02   1.0000000000E+01  9.275E-10  -1.
3000002    2    3    0    0    0  -1.3406128193E+01  -6.0024673090E+01  -1.8491454483E+02   1.9513091642E+02   1.0000000000E+01  8.048E-11  -1.
3000001    1    4    0    0    0   4.6062221637E-01   3.8825548547E+00  -5.4432883968E+00   6.7761193611E+00   1.0000000000E+00     0.000  -1.
3000022   2   4   0   0   0   1.2945505977E+01   5.6142118235E+01   -1.5122057407E+02   1.6182474498E+02   2.5000000000E-01   1.138172E+01   0.
3000001    1    5    0    0    0   1.3225368469E+00  -8.3541658864E+00  -2.8502110521E+01   2.9747462001E+01   1.0000000000E+00     0.000   1.
3000022   2   5   0   0   0   -1.4728665040E+01   -5.1670507203E+01   -1.5641243431E+02   1.6538345442E+02   2.5000000000E-01   6.129436E+00   0.
13    1    7    0    0    0   5.2828573312E+00   2.3144984757E+01  -6.2413180113E+01   6.6775856249E+01   1.0500000000E-01     0.000   1.
-13    1    7    0    0    0   7.6626486456E+00   3.2997133478E+01  -8.8807393957E+01   9.5048888728E+01   1.0500000000E-01     0.000  -1.
13    1    9    0    0    0  -8.4925011168E+00  -2.9886808527E+01  -9.0265570888E+01   9.5463229633E+01   1.0500000000E-01     0.000   1.
-13    1    9    0    0    0  -6.2361639234E+00  -2.1783698676E+01  -6.6146863425E+01   6.9920224788E+01   1.0500000000E-01     0.000  -1.
</event>
<event>
 13   1  9.2978750E-05  1.2500000E+02  7.5467720E-03  1.2380620E-01
   21   -1    0    0  502  501   0.0000000000E+00   0.0000000000E+00   8.2258763191E+01   8.2258763191E+01   0.0000000000E+00     0.000  -1.
   21   -1    0    0  501  502   0.0000000000E+00   0.0000000000E+00  -4.7487341755E+01   4.7487341755E+01   0.0000000000E+00     0.000  -1.
   25    2    1    2    0    0   0.0000000000E+00   0.0000000000E+00   3.4771421436E+01   1.2974610495E+02   1.2500000000E+02  8.897E-09  -1.
3000002    2    3    0    0    0   5.9085987040E+01  -1.5697479453E+01   2.5988041440E+01   6.7178441658E+01   1.0000000000E+01  1.158E-09   1.
3000002    2    3    0    0    0  -5.9085987040E+01   1.5697479453E+01   8.7833799963E+00   6.2567663292E+01   1.0000000000E+01  2.359E-10   1.
3000001    1    4    0    0    0   4.2479539999E+01  -6.9312816163E+00   1.9960654911E+01   4.7455049551E+01   1.0000000000E+00     0.000  -1.
3000022   2   4   0   0   0   1.6606447041E+01   -8.7661978370E+00   6.0273865287E+00   1.9723392107E+01   2.5000000000E-01   8.389950E+00   0.
3000001    1    5    0    0    0  -4.4354343252E+00   2.3832102350E-01   3.0572522549E+00   5.4842197178E+00   1.0000000000E+00     0.000  -1.
3000022   2   5   0   0   0   -5.4650552715E+01   1.5459158430E+01   5.7261277415E+00   5.7083443574E+01   2.5000000000E-01   1.365730E+01   0.
13    1    7    0    0    0   7.2252007178E+00  -3.8882488707E+00   2.6405580199E+00   8.6200682334E+00   1.0500000000E-01     0.000   1.
-13    1    7    0    0    0   9.3812463231E+00  -4.8779489663E+00   3.3868285089E+00   1.1103323874E+01   1.0500000000E-01     0.000  -1.
13    1    9    0    0    0  -2.2958220479E+01   6.4390520858E+00   2.4412784319E+00   2.3968982972E+01   1.0500000000E-01     0.000  -1.
-13    1    9    0    0    0  -3.1692332236E+01   9.0201063439E+00   3.2848493095E+00   3.3114460602E+01   1.0500000000E-01     0.000   1.
</event>
<event>
 13   1  9.2978750E-05  1.2500000E+02  7.5467720E-03  1.2380620E-01
   21   -1    0    0  502  501   0.0000000000E+00   0.0000000000E+00   3.3478513953E+01   3.3478513953E+01   0.0000000000E+00     0.000  -1.
   21   -1    0    0  501  502   0.0000000000E+00   0.0000000000E+00  -1.1667931275E+02   1.1667931275E+02   0.0000000000E+00     0.000  -1.
   25    2    1    2    0    0   0.0000000000E+00   0.0000000000E+00  -8.3200798799E+01   1.5015782671E+02   1.2500000000E+02  5.022E-08  -1.
3000002    2    3    0    0    0  -7.6038913327E+00   5.6672458136E+01  -6.9428843138E+01   9.0498347687E+01   1.0000000000E+01  5.065E-10  -1.
3000002    2    3    0    0    0   7.6038913327E+00  -5.6672458136E+01  -1.3771955661E+01   5.9659479023E+01   1.0000000000E+01  8.548E-11  -1.
3000001    1    4    0    0    0  -3.9891250398E+00   4.5677959406E+01  -4.9727421973E+01   6.7647657684E+01   1.0000000000E+00     0.000  -1.
3000022   2   4   0   0   0   -3.6147662929E+00   1.0994498730E+01   -1.9701421165E+01   2.2850690003E+01   2.5000000000E-01   3.422640E+00   0.
3000001    1    5    0    0    0   4.1987413302E+00  -6.8099823226E+00  -1.6096613021E+00   8.2216967531E+00   1.0000000000E+00     0.000   1.
3000022   2   5   0   0   0   3.4051500024E+00   -4.9862475813E+01   -1.2162294359E+01   5.1437782270E+01   2.5000000000E-01   5.505955E-02   0.
13    1    7    0    0    0  -2.5358810973E+00   7.6302616120E+00  -1.3763639666E+01   1.5940526561E+01   1.0500000000E-01     0.000  -1.
-13    1    7    0    0    0  -1.0788851956E+00   3.3642371181E+00  -5.9377814998E+00   6.9101634417E+00   1.0500000000E-01     0.000   1.
13    1    9    0    0    0   2.4641833989E+00  -3.6560558409E+01  -8.9046890035E+00   3.7710093374E+01   1.0500000000E-01     0.000   1.
-13    1    9    0    0    0   9.4096660351E-01  -1.3301917404E+01  -3.2576053553E+00   1.3727688896E+01   1.0500000000E-01     0.000  -1.
</event>
<event>
 13   1  9.2978750E-05  1.2500000E+02  7.5467720E-03  1.2380620E-01
   21   -1    0    0  502  501   0.0000000000E+00   0.0000000000E+00   1.7695548750E+02   1.7695548750E+02   0.0000000000E+00     0.000  -1.
   21   -1    0    0  501  502   0.0000000000E+00   0.0000000000E+00  -2.2074760468E+01   2.2074760468E+01   0.0000000000E+00     0.000  -1.
   25    2    1    2    0    0   0.0000000000E+00   0.0000000000E+00   1.5488072703E+02   1.9903024797E+02   1.2500000000E+02  1.004E-07  -1.
3000002    2    3    0    0    0   3.1238828635E+01  -1.1371110473E+01   1.6019228192E+02   1.6391074935E+02   1.0000000000E+01  8.518E-10  -1.
3000002    2    3    0    0    0  -3.1238828635E+01   1.1371110473E+01  -5.3115548852E+00   3.5119498618E+01   1.0000000000E+01  4.625E-10  -1.
3000001    1    4    0    0    0   2.1265825674E+01  -2.6751512933E+00   1.0205136199E+02   1.0428265560E+02   1.0000000000E+00     0.000  -1.
3000022   2   4   0   0   0   9.9730029614E+00   -8.6959591802E+00   5.8140919925E+01   5.9628093747E+01   2.5000000000E-01   3.323674E-01   0.
3000001    1    5    0    0    0  -1.9466593717E+01   9.6290590133E+00  -7.5368049090E+00   2.3010225481E+01   1.0000000000E+00     0.000  -1.
3000022   2   5   0   0   0   -1.1772234918E+01   1.7420514602E+00   2.2252500238E+00   1.2109273137E+01   2.5000000000E-01   4.014124E+00   0.
13    1    7    0    0    0   6.7129994619E+00  -5.8660956211E+00   3.8937982962E+01   3.9945625314E+01   1.0500000000E-01     0.000  -1.
-13    1    7    0    0    0   3.2600034995E+00  -2.8298635592E+00   1.9202936964E+01   1.9682468433E+01   1.0500000000E-01     0.000   1.
13    1    9    0    0    0  -6.7209975185E+00   1.0548657778E+00   1.2993470639E+00   6.9270395730E+00   1.0500000000E-01     0.000  -1.
-13    1    9    0    0    0  -5.0512373992E+00   6.8718568235E-01   9.2590295989E-01   5.1822335644E+00   1.0500000000E-01     0.000   1.
</event>
<event>
 13   1  9.2978750E-05  1.2500000E+02  7.5467720E-03  1.2380620E-01
   21   -1    0    0  502  501   0.0000000000E+00   0.0000000000E+00   2.0676488297E+01   2.0676488297E+01   0.0000000000E+00     0.000  -1.
   21   -1    0    0  501  502   0.0000000000E+00   0.0000000000E+00  -1.8892231330E+02   1.8892231330E+02   0.0000000000E+00     0.000  -1.
   25    2    1    2    0    0   0.0000000000E+00   0.0000000000E+00  -1.6824582500E+02   2.0959880160E+02   1.2500000000E+02  6.862E-08  -1.
3000002    2    3    0    0    0   4.5758997367E+00   3.6568125158E+01  -1.1584920925E+00   3.8203517376E+01   1.0000000000E+01  4.551E-10  -1.
3000002    2    3    0    0    0  -4.5758997367E+00  -3.6568125158E+01  -1.6708733291E+02   1.7139528422E+02   1.0000000000E+01  2.123E-09  -1.
3000001    1    4    0    0    0  -2.7272919109E+00   1.1364673926E+01   1.5096223983E+00   1.1826787154E+01   1.0000000000E+00     0.000   1.
3000022   2   4   0   0   0   7.3031916476E+00   2.5203451233E+01   -2.6681144908E+00   2.6376730222E+01   2.5000000000E-01   7.395444E+00   0.
3000001    1    5    0    0    0   3.5337671718E-01   6.6695562834E-02  -2.6706105107E+00   2.8742797189E+00   1.0000000000E+00     0.000  -1.
3000022   2   5   0   0   0   -4.9292764539E+00   -3.6634820721E+01   -1.6441672240E+02   1.6852100450E+02   2.5000000000E-01   2.861176E+00   0.
13    1    7    0    0    0   4.4089528030E+00   1.5393733072E+01  -1.5908452199E+00   1.6091851858E+01   1.0500000000E-01     0.000   1.
-13    1    7    0    0    0   2.8942388446E+00   9.8097181605E+00  -1.0772692709E+00   1.0284878364E+01   1.0500000000E-01     0.000  -1.
13    1    9    0    0    0  -1.7628842731E+00  -1.3401418336E+01  -6.0320055982E+01   6.1816065493E+01   1.0500000000E-01     0.000  -1.
-13    1    9    0    0    0  -3.1663921808E+00  -2.3233402385E+01  -1.0409666641E+02   1.0670493901E+02   1.0500000000E-01     0.000   1.
</event>
<event>
 13   1  9.2978750E-05  1.2500000E+02  7.5467720E-03  1.2380620E-01
   21   -1    0    0  502  501   0.0000000000E+00   0.0000000000E+00   6.5878114012E+00   6.5878114012E+00   0.0000000000E+00     0.000  -1.
   21   -1    0    0  501  502   0.0000000000E+00   0.0000000000E+00  -5.9295109743E+02   5.9295109743E+02   0.0000000000E+00     0.000  -1.
   25    2    1    2    0    0   0.0000000000E+00   0.0000000000E+00  -5.8636328603E+02   5.9953890883E+02   1.2500000000E+02  3.406E-08  -1.
3000002    2    3    0    0    0  -2.3059333903E+01  -3.5236420070E+00  -1.9241255175E+01   3.1849251698E+01   1.0000000000E+01  7.234E-10   1.
3000002    2    3    0    0    0   2.3059333903E+01   3.5236420070E+00  -5.6712203086E+02   5.6768965713E+02   1.0000000000E+01  3.837E-10   1.
3000001    1    4    0    0    0  -2.2575362306E+01  -2.0412008515E+00  -1.4685108520E+01   2.7027132597E+01   1.0000000000E+00     0.000   1.
3000022   2   4   0   0   0   -4.8397159649E-01   -1.4824411555E+00   -4.5561466547E+00   4.8221191010E+00   2.5000000000E-01   2.995635E-01   0.
3000001    1    5    0    0    0   2.1800760155E+01   4.3940560774E+00  -5.5743322466E+02   5.5787756795E+02   1.0000000000E+00     0.000   1.
3000022   2   5   0   0   0   1.2585737476E+00   -8.7041407037E-01   -9.6888061993E+00   9.8120891812E+00   2.5000000000E-01   5.518430E-01   0.
13    1    7    0    0    0  -2.9275661603E-01  -1.0486517764E+00  -3.1546250165E+00   3.3388712133E+00   1.0500000000E-01     0.000   1.
-13    1    7    0    0    0  -1.9121498046E-01  -4.3378937906E-01  -1.4015216382E+00   1.4832478877E+00   1.0500000000E-01     0.000  -1.
13    1    9    0    0    0   4.6227143985E-01  -2.5410312065E-01  -3.2754623802E+00   3.3193285592E+00   1.0500000000E-01     0.000  -1.
-13    1    9    0    0    0   7.9630230772E-01  -6.1631094972E-01  -6.4133438191E+00   6.4927606220E+00   1.0500000000E-01     0.000   1.
</event>
<event>
 13   1  9.2978750E-05  1.2500000E+02  7.5467720E-03  1.2380620E-01
   21   -1    0    0  502  501   0.0000000000E+00   0.0000000000E+00   4.3216624806E+02   4.3216624806E+02   0.0000000000E+00     0.000   1.
   21   -1    0    0  501  502   0.0000000000E+00   0.0000000000E+00  -9.0387669504E+00   9.0387669504E+00   0.0000000000E+00     0.000   1.
   25    2    1    2    0    0   0.0000000000E+00   0.0000000000E+00   4.2312748111E+02   4.4120501501E+02   1.2500000000E+02  1.778E-08  -1.
3000002    2    3    0    0    0   4.3885017633E+01  -1.9495178137E+01   7.4848004216E+01   8.9488437680E+01   1.0000000000E+01  8.169E-11  -1.
3000002    2    3    0    0    0  -4.3885017633E+01   1.9495178137E+01   3.4827947689E+02   3.5171657733E+02   1.0000000000E+01  2.396E-09  -1.
3000001    1    4    0    0    0   2.0282809106E+01  -3.6898217669E+00   3.0935032936E+01   3.7188484678E+01   1.0000000000E+00     0.000  -1.
3000022   2   4   0   0   0   2.3602208527E+01   -1.5805356370E+01   4.3912971280E+01   5.2299953002E+01   2.5000000000E-01   2.650255E+00   0.
3000001    1    5    0    0    0  -2.8440895321E+01   1.2329884497E+01   2.5678446305E+02   2.5865067377E+02   1.0000000000E+00     0.000  -1.
3000022   2   5   0   0   0   -1.5444122313E+01   7.1652936396E+00   9.1495013844E+01   9.3065903559E+01   2.5000000000E-01   3.795643E+00   0.
13    1    7    0    0    0   1.0198129917E+01  -6.8574090589E+00   1.9111564082E+01   2.2721989778E+01   1.0500000000E-01     0.000  -1.
-13    1    7    0    0    0   1.3404078611E+01  -8.9479473112E+00   2.4801407198E+01   2.9577963224E+01   1.0500000000E-01     0.000   1.
13    1    9    0    0    0  -5.3161297754E+00   2.4183601430E+00   3.1574705190E+01   3.2110477019E+01   1.0500000000E-01     0.000   1.
-13    1    9    0    0    0  -1.0127992537E+01   4.7469334965E+00   5.9920308654E+01   6.0955426540E+01   1.0500000000E-01     0.000  -1.
</event>
<event>
 13   1  9.2978750E-05  1.2500000E+02  7.5467720E-03  1.2380620E-01
   21   -1    0    0  502  501   0.0000000000E+00   0.0000000000E+00   1.9034166453E+01   1.9034166453E+01   0.0000000000E+00     0.000  -1.
   21   -1    0    0  501  502   0.0000000000E+00   0.0000000000E+00  -2.0522306609E+02   2.0522306609E+02   0.0000000000E+00     0.000  -1.
   25    2    1    2    0    0   0.0000000000E+00   0.0000000000E+00  -1.8618889964E+02   2.2425723255E+02   1.2500000000E+02  4.489E-08  -1.
3000002    2    3    0    0    0  -6.9095306772E+00  -6.0711429530E+01  -1.0838406632E+02   1.2482277485E+02   1.0000000000E+01  1.033E-09  -1.
3000002    2    3    0    0    0   6.9095306772E+00   6.0711429530E+01  -7.7804833317E+01   9.9434457696E+01   1.0000000000E+01  2.321E-10  -1.
3000001    1    4    0    0    0  -3.4990653532E+00  -2.8534537905E+01  -4.1151299166E+01   5.0208492656E+01   1.0000000000E+00     0.000  -1.
3000022   2   4   0   0   0   -3.4104653240E+00   -3.2176891625E+01   -6.7232767157E+01   7.4614282198E+01   2.5000000000E-01   3.536326E+00   0.
3000001    1    5    0    0    0   6.6759242827E+00   2.1774253859E+01  -2.5123262380E+01   3.3924392533E+01   1.0000000000E+00     0.000   1.
3000022   2   5   0   0   0   2.3360639443E-01   3.8937175671E+01   -5.2681570937E+01   6.5510065163E+01   2.5000000000E-01   8.015878E+00   0.
13    1    7    0    0    0  -1.4855066379E+00  -1.3515965466E+01  -2.8340406700E+01   3.1433703717E+01   1.0500000000E-01     0.000  -1.
-13    1    7    0    0    0  -1.9249586861E+00  -1.8660926159E+01  -3.8892360457E+01   4.3180578481E+01   1.0500000000E-01     0.000   1.
13    1    9    0    0    0   1.5532809808E-01   1.7276753275E+01  -2.3305786313E+01   2.9011739541E+01   1.0500000000E-01     0.000   1.
-13    1    9    0    0    0   7.8278296354E-02   2.1660422396E+01  -2.9375784624E+01   3.6498325621E+01   1.0500000000E-01     0.000  -1.
</event>
<event>
 13   1  9.2978750E-05  1.2500000E+02  7.5467720E-03  1.2380620E-01
   21   -1    0    0  502  501   0.0000000000E+00   0.0000000000E+00   6.6702885409E+02   6.6702885409E+02   0.0000000000E+00     0.000  -1.
   21   -1    0    0  501  502   0.0000000000E+00   0.0000000000E+00  -5.8561934406E+00   5.8561934406E+00   0.0000000000E+00     0.000  -1.
   25    2    1    2    0    0   0.0000000000E+00   0.0000000000E+00   6.6117266065E+02   6.7288504753E+02   1.2500000000E+02  7.979E-09  -1.
3000002    2    3    0    0    0   4.4360927438E+00   6.0112557865E+01   2.5977243115E+02   2.6686122708E+02   1.0000000000E+01  1.243E-09   1.
3000002    2    3    0    0    0  -4.4360927438E+00  -6.0112557865E+01   4.0140022950E+02   4.0602382045E+02   1.0000000000E+01  1.263E-09   1.
3000001    1    4    0    0    0   5.3361320971E+00   2.9075239603E+01   1.4330467792E+02   1.4632523561E+02   1.0000000000E+00     0.000  -1.
3000022   2   4   0   0   0   -9.0003935324E-01   3.1037318262E+01   1.1646775323E+02   1.2053599146E+02   2.5000000000E-01   3.916912E+00   0.
3000001    1    5    0    0    0  -5.8256785581E+00  -5.5996203170E+01   3.8294169651E+02   3.8705924123E+02   1.0000000000E+00     0.000   1.
3000022   2   5   0   0   0   1.3895858142E+00   -4.1163546952E+00   1.8458532994E+01   1.8964579220E+01   2.5000000000E-01   3.792653E+00   0.
13    1    7    0    0    0  -2.2269795979E-01   7.4255609652E+00   2.7934107670E+01   2.8905258109E+01   1.0500000000E-01     0.000  -1.
-13    1    7    0    0    0  -6.7734139345E-01   2.3611757297E+01   8.8533645560E+01   9.1630733355E+01   1.0500000000E-01     0.000   1.
13    1    9    0    0    0   4.2554172278E-01  -1.3276990636E+00   6.1353952120E+00   6.2926917904E+00   1.0500000000E-01     0.000  -1.
-13    1    9    0    0    0   9.6404409144E-01  -2.7886556316E+00   1.2323137782E+01   1.2671887430E+01   1.0500000000E-01     0.000   1.
</event>
<event>
 13   1  9.2978750E-05  1.2500000E+02  7.5467720E-03  1.2380620E-01
   21   -1    0    0  502  501   0.0000000000E+00   0.0000000000E+00   3.6011173237E+01   3.6011173237E+01   0.0000000000E+00     0.000  -1.
   21   -1    0    0  501  502   0.0000000000E+00   0.0000000000E+00  -1.0847327784E+02   1.0847327784E+02   0.0000000000E+00     0.000  -1.
   25    2    1    2    0    0   0.0000000000E+00   0.0000000000E+00  -7.2462104607E+01   1.4448445108E+02   1.2500000000E+02  2.163E-08  -1.
3000002    2    3    0    0    0  -2.0228154665E+01  -5.7507317490E+01  -2.5266660108E+01   6.6743343631E+01   1.0000000000E+01  4.813E-10   1.
3000002    2    3    0    0    0   2.0228154665E+01   5.7507317490E+01  -4.7195444499E+01   7.7741107449E+01   1.0000000000E+01  7.889E-11   1.
3000001    1    4    0    0    0  -4.4271299384E+00  -4.2840640296E+00  -3.0008072206E+00   6.9251374048E+00   1.0000000000E+00     0.000   1.
3000022   2   4   0   0   0   -1.5801024726E+01   -5.3223253460E+01   -2.2265852887E+01   5.9818206226E+01   2.5000000000E-01   2.124974E+00   0.
3000001    1    5    0    0    0   1.8154016584E+01   4.1024499002E+01  -3.1005744608E+01   5.4542955872E+01   1.0000000000E+00     0.000   1.
3000022   2   5   0   0   0   2.0741380810E+00   1.6482818487E+01   -1.6189699891E+01   2.3198151578E+01   2.5000000000E-01   3.909222E+00   0.
13    1    7    0    0    0  -8.6181492260E+00  -2.8821212509E+01  -1.2098352358E+01   3.2424002550E+01   1.0500000000E-01     0.000  -1.
-13    1    7    0    0    0  -7.1828755004E+00  -2.4402040951E+01  -1.0167500530E+01   2.7394203676E+01   1.0500000000E-01     0.000   1.
13    1    9    0    0    0   7.9337107568E-01   6.3165731950E+00  -6.1190401334E+00   8.8307537473E+00   1.0500000000E-01     0.000   1.
-13    1    9    0    0    0   1.2807670054E+00   1.0166245292E+01  -1.0070659758E+01   1.4367397830E+01   1.0500000000E-01     0.000  -1.
</event>
<event>
 13   1  9.2978750E-05  1.2500000E+02  7.5467720E-03  1.2380620E-01
   21   -1    0    0  502  501   0.0000000000E+00   0.0000000000E+00   7.0643451314E+01   7.0643451314E+01   0.0000000000E+00     0.000  -1.
   21   -1    0    0  501  502   0.0000000000E+00   0.0000000000E+00  -5.5295288202E+01   5.5295288202E+01   0.0000000000E+00     0.000  -1.
   25    2    1    2    0    0   0.0000000000E+00   0.0000000000E+00   1.5348163111E+01   1.2593873952E+02   1.2500000000E+02  3.194E-08  -1.
3000002    2    3    0    0    0   4.6979388536E+01   3.8240899461E+01  -4.1107986444E+00   6.1533145575E+01   1.0000000000E+01  2.152E-10   1.
3000002    2    3    0    0    0  -4.6979388536E+01  -3.8240899461E+01   1.9458961755E+01   6.4405593945E+01   1.0000000000E+01  3.638E-10   1.
3000001    1    4    0    0    0   3.2116564535E+01   2.0491535521E+01  -5.8604642775E-01   3.8114566716E+01   1.0000000000E+00     0.000  -1.
3000022   2   4   0   0   0   1.4862824001E+01   1.7749363940E+01   -3.5247522166E+00   2.3418578859E+01   2.5000000000E-01   8.010652E-02   0.
3000001    1    5    0    0    0  -2.2871009542E+01  -2.2181744312E+01   1.4484745530E+01   3.5013150547E+01   1.0000000000E+00     0.000  -1.
3000022   2   5   0   0   0   -2.4108378994E+01   -1.6059155150E+01   4.9742162257E+00   2.9392443398E+01   2.5000000000E-01   1.771787E+00   0.
13    1    7    0    0    0   6.3175470099E+00   7.5879153100E+00  -1.5630349419E+00   9.9970976890E+00   1.0500000000E-01     0.000   1.
-13    1    7    0    0    0   8.5452769914E+00   1.0161448630E+01  -1.9617172748E+00   1.3421481170E+01   1.0500000000E-01     0.000  -1.
13    1    9    0    0    0  -7.3316302644E+00  -4.9079984046E+00   1.4719673021E+00   8.9453319341E+00   1.0500000000E-01     0.000   1.
-13    1    9    0    0    0  -1.6776748730E+01  -1.1151156745E+01   3.5022489236E+00   2.0447111464E+01   1.0500000000E-01     0.000  -1.
</event>
<event>
 13   1  9.2978750E-05  1.2500000E+02  7.5467720E-03  1.2380620E-01
   21   -1    0    0  502  501   0.0000000000E+00   0.0000000000E+00   2.9430861958E+01   2.9430861958E+01   0.0000000000E+00     0.000   1.
   21   -1    0    0  501  502   0.0000000000E+00   0.0000000000E+00  -1.3272631993E+02   1.3272631993E+02   0.0000000000E+00     0.000   1.
   25    2    1    2    0    0   0.0000000000E+00   0.0000000000E+00  -1.0329545797E+02   1.6215718189E+02   1.2500000000E+02  2.425E-09  -1.
3000002    2    3    0    0    0  -4.8271461614E+00   5.4329191084E+00   2.7829085941E+01   3.0451206452E+01   1.0000000000E+01  4.787E-10  -1.
3000002    2    3    0    0    0   4.8271461614E+00  -5.4329191084E+00  -1.3112454391E+02   1.3170597544E+02   1.0000000000E+01  2.359E-09  -1.
3000001    1    4    0    0    0  -2.7184224926E+00   6.1509329521E-01   1.0228263009E+00   3.1327837863E+00   1.0000000000E+00     0.000   1.
3000022   2   4   0   0   0   -2.1087236688E+00   4.8178258132E+00   2.6806259640E+01   2.7318422666E+01   2.5000000000E-01   6.411287E+00   0.
3000001    1    5    0    0    0   5.4701866268E+00  -7.4396535726E+00  -7.9996579121E+01   8.0533993184E+01   1.0000000000E+00     0.000   1.
3000022   2   5   0   0   0   -6.4304046539E-01   2.0067344642E+00   -5.1127964790E+01   5.1171982254E+01   2.5000000000E-01   6.873719E+00   0.
13    1    7    0    0    0  -1.1736837189E+00   2.6750278375E+00   1.5230483095E+01   1.5508447624E+01   1.0500000000E-01     0.000  -1.
-13    1    7    0    0    0  -9.3503994996E-01   2.1427979757E+00   1.1575776545E+01   1.1809975042E+01   1.0500000000E-01     0.000   1.
13    1    9    0    0    0  -3.0846588254E-01   1.0102032926E+00  -2.4026814064E+01   2.4050249083E+01   1.0500000000E-01     0.000  -1.
-13    1    9    0    0    0  -3.3457458286E-01   9.9653117160E-01  -2.7101150726E+01   2.7121733171E+01   1.0500000000E-01     0.000   1.
</event>
<event>
 13   1  9.2978750E-05  1.2500000E+02  7.5467720E-03  1.2380620E-01
   21   -1    0    0  502  501   0.0000000000E+00   0.0000000000E+00   3.7549143517E+01   3.7549143517E+01   0.0000000000E+00     0.000   1.
   21   -1    0    0  501  502   0.0000000000E+00   0.0000000000E+00  -1.0403033556E+02   1.0403033556E+02   0.0000000000E+00     0.000   1.
   25    2    1    2    0    0   0.0000000000E+00   0.0000000000E+00  -6.6481192042E+01   1.4157947908E+02   1.2500000000E+02  7.902E-08  -1.
3000002    2    3    0    0    0  -1.1575082148E+01   1.1104912151E+01  -1.0071516819E+02   1.0247363907E+02   1.0000000000E+01  6.888E-10  -1.
3000002    2    3    0    0    0   1.1575082148E+01  -1.1104912151E+01   3.4233976144E+01   3.9105840015E+01   1.0000000000E+01  1.539E-09  -1.
3000001    1    4    0    0    0  -1.1766232594E+01   5.9025135607E+00  -6.0600368443E+01   6.2021678075E+01   1.0000000000E+00     0.000  -1.
3000022   2   4   0   0   0   1.9115044542E-01   5.2023985904E+00   -4.0114799742E+01   4.0451960990E+01   2.5000000000E-01   2.079170E+00   0.
3000001    1    5    0    0    0   8.0654917414E+00  -1.1446260531E+01   3.1947765061E+01   3.4895970105E+01   1.0000000000E+00     0.000  -1.
3000022   2   5   0   0   0   3.5095904071E+00   3.4134837984E-01   2.2862110832E+00   4.2098699100E+00   2.5000000000E-01   4.272519E+00   0.
13    1    7    0    0    0   9.9960259661E-02   1.9900120462E+00  -1.4936348449E+01   1.5069030161E+01   1.0500000000E-01     0.000   1.
-13    1    7    0    0    0   9.1190185756E-02   3.2123865442E+00  -2.5178451294E+01   2.5382930830E+01   1.0500000000E-01     0.000  -1.
13    1    9    0    0    0   9.0998503833E-01   1.0690190896E-01   5.6570636268E-01   1.0819193486E+00   1.0500000000E-01     0.000  -1.
-13    1    9    0    0    0   2.5996053687E+00   2.3444647088E-01   1.7205047205E+00   3.1279505613E+00   1.0500000000E-01     0.000   1.
</event>
<event>
 13   1  9.2978750E-05  1.2500000E+02  7.5467720E-03  1.2380620E-01
   21   -1    0    0  502  501   0.0000000000E+00   0.0000000000E+00   1.8826687226E+02   1.8826687226E+02   0.0000000000E+00     0.000  -1.
   21   -1    0    0  501  502   0.0000000000E+00   0.0000000000E+00  -2.0748472384E+01   2.0748472384E+01   0.0000000000E+00     0.000  -1.
   25    2    1    2    0    0   0.0000000000E+00   0.0000000000E+00   1.6751839988E+02   2.0901534465E+02   1.2500000000E+02  1.879E-08  -1.
3000002    2    3    0    0    0  -6.1549197196E+01   3.8608899303E+00   8.6674575435E+01   1.0684424258E+02   1.0000000000E+01  1.329E-09   1.
3000002    2    3    0    0    0   6.1549197196E+01  -3.8608899303E+00   8.0843824445E+01   1.0217110207E+02   1.0000000000E+01  3.156E-11   1.
3000001    1    4    0    0    0  -5.3629536919E+01   3.1580906557E+00   6.8929771248E+01   8.7398021322E+01   1.0000000000E+00     0.000   1.
3000022   2   4   0   0   0   -7.9196602765E+00   7.0279927462E-01   1.7744804188E+01   1.9446221262E+01   2.5000000000E-01   1.279238E+01   0.
3000001    1    5    0    0    0   5.3395700922E+00  -3.6369763089E-01   3.4167442935E+00   6.4278632766E+00   1.0000000000E+00     0.000   1.
3000022   2   5   0   0   0   5.6209627104E+01   -3.4971922994E+00   7.7427080151E+01   9.5743238789E+01   2.5000000000E-01   1.042557E+01   0.
13    1    7    0    0    0  -4.3500328049E+00   3.3964498151E-01   9.6190105902E+00   1.0562884732E+01   1.0500000000E-01     0.000   1.
-13    1    7    0    0    0  -3.5696274716E+00   3.6315429311E-01   8.1257935974E+00   8.8833365305E+00   1.0500000000E-01     0.000  -1.
13    1    9    0    0    0   2.7098232435E+01  -1.6187524621E+00   3.7336408827E+01   4.6162246584E+01   1.0500000000E-01     0.000  -1.
-13    1    9    0    0    0   2.9111394668E+01  -1.8784398373E+00   4.0090671325E+01   4.9580992205E+01   1.0500000000E-01     0.000   1.
</event>
<event>
 13   1  9.2978750E-05  1.2500000E+02  7.5467720E-03  1.2380620E-01
   21   -1    0    0  502  501   0.0000000000E+00   0.0000000000E+00   6.5081562238E+02   6.5081562238E+02   0.0000000000E+00     0.000  -1.
   21   -1    0    0  501  502   0.0000000000E+00   0.0000000000E+00  -6.0020839477E+00   6.0020839477E+00   0.0000000000E+00     0.000  -1.
   25    2    1    2    0    0   0.0000000000E+00   0.0000000000E+00   6.4481353843E+02   6.5681770632E+02   1.2500000000E+02  3.389E-08  -1.
3000002    2    3    0    0    0  -4.8938519255E+01  -1.1836603697E+01   1.3506440453E+02   1.4449040530E+02   1.0000000000E+01  7.681E-10  -1.
3000002    2    3    0    0    0   4.8938519255E+01   1.1836603697E+01   5.0974913390E+02   5.1232730102E+02   1.0000000000E+01  1.430E-09  -1.
3000001    1    4    0    0    0  -2.5255532282E+01  -3.3966185913E+00   5.6215860042E+01   6.1730072484E+01   1.0000000000E+00     0.000  -1.
3000022   2   4   0   0   0   -2.3682986974E+01   -8.4399851058E+00   7.8848544487E+01   8.2760332819E+01   2.5000000000E-01   9.750776E+00   0.
3000001    1    5    0    0    0   6.1148777805E+00  -6.3927355968E-01   4.2513846627E+01   4.2967750185E+01   1.0000000000E+00     0.000   1.
3000022   2   5   0   0   0   4.2823641475E+01   1.2475877257E+01   4.6723528727E+02   4.6935955083E+02   2.5000000000E-01   6.361001E+00   0.
13    1    7    0    0    0  -9.6905468615E+00  -3.4033515717E+00   3.2069461328E+01   3.3674187077E+01   1.0500000000E-01     0.000   1.
-13    1    7    0    0    0  -1.3992440112E+01  -5.0366335341E+00   4.6779083159E+01   4.9086145742E+01   1.0500000000E-01     0.000  -1.
13    1    9    0    0    0   1.9230353779E+01   5.6669292227E+00   2.1026455411E+02   2.1121816762E+02   1.0500000000E-01     0.000  -1.
-13    1    9    0    0    0   2.3593287696E+01   6.8089480341E+00   2.5697073316E+02   2.5814138321E+02   1.0500000000E-01     0.000   1.
</event>
<event>
 13   1  9.2978750E-05  1.2500000E+02  7.5467720E-03  1.2380620E-01
   21   -1    0    0  502  501   0.0000000000E+00   0.0000000000E+00   4.7546377569E+01   4.7546377569E+01   0.0000000000E+00     0.000  -1.
   21   -1    0    0  501  502   0.0000000000E+00   0.0000000000E+00  -8.2156626851E+01   8.2156626851E+01   0.0000000000E+00     0.000  -1.
   25    2    1    2    0    0   0.0000000000E+00   0.0000000000E+00  -3.4610249282E+01   1.2970300442E+02   1.2500000000E+02  1.466E-08  -1.
3000002    2    3    0    0    0  -5.9342874245E+01   4.6858300943E-01   1.9518857335E-01   6.0181678210E+01   1.0000000000E+01  3.733E-10  -1.
3000002    2    3    0    0    0   5.9342874245E+01  -4.6858300943E-01  -3.4805437855E+01   6.9521326210E+01   1.0000000000E+01  2.495E-10  -1.
3000001    1    4    0    0    0  -5.4016505243E+00   2.5297217930E+00   1.3135804577E+00   6.1889267531E+00   1.0000000000E+00     0.000   1.
3000022   2   4   0   0   0   -5.3941223720E+01   -2.0611387835E+00   -1.1183918843E+00   5.3992751457E+01   2.5000000000E-01   3.692993E+00   0.
3000001    1    5    0    0    0   4.3891791537E+01  -4.6285073969E+00  -2.6532880285E+01   5.1506370298E+01   1.0000000000E+00     0.000  -1.
3000022   2   5   0   0   0   1.5451082707E+01   4.1599243875E+00   -8.2725575706E+00   1.8014955912E+01   2.5000000000E-01   9.436237E-01   0.
13    1    7    0    0    0  -1.7928888828E+01  -6.6776098103E-01  -3.2126772040E-01   1.7944503261E+01   1.0500000000E-01     0.000   1.
-13    1    7    0    0    0  -3.6012334892E+01  -1.3933778025E+00  -7.9712416391E-01   3.6048248196E+01   1.0500000000E-01     0.000  -1.
13    1    9    0    0    0   8.8844331913E+00   2.4576206250E+00  -4.7487236256E+00   1.0369882031E+01   1.0500000000E-01     0.000   1.
-13    1    9    0    0    0   6.5666495160E+00   1.7023037625E+00  -3.5238339450E+00   7.6450738804E+00   1.0500000000E-01     0.000  -1.
</event>
<event>
 13   1  9.2978750E-05  1.2500000E+02  7.5467720E-03  1.2380620E-01
   21   -1    0    0  502  501   0.0000000000E+00   0.0000000000E+00   4.3158815878E+01   4.3158815878E+01   0.0000000000E+00     0.000  -1.
   21   -1    0    0  501  502   0.0000000000E+00   0.0000000000E+00  -9.0508738958E+01   9.0508738958E+01   0.0000000000E+00     0.000  -1.
   25    2    1    2    0    0   0.0000000000E+00   0.0000000000E+00  -4.7349923080E+01   1.3366755484E+02   1.2500000000E+02  4.961E-09  -1.
3000002    2    3    0    0    0   2.9937775483E+01   5.1091201513E+01  -4.2186252299E+01   7.3391151755E+01   1.0000000000E+01  2.796E-11   1.
3000002    2    3    0    0    0  -2.9937775483E+01  -5.1091201513E+01  -5.1636707810E+00   6.0276403085E+01   1.0000000000E+01  2.573E-09   1.
3000001    1    4    0    0    0   1.2173197116E+01   1.6803816714E+01  -9.6994754065E+00   2.2926726921E+01   1.0000000000E+00     0.000  -1.
3000022   2   4   0   0   0   1.7764578367E+01   3.4287384800E+01   -3.2486776893E+01   5.0464424834E+01   2.5000000000E-01   2.597228E-01   0.
3000001    1    5    0    0    0  -2.4034304525E+01  -3.1844520743E+01  -4.0157967177E+00   4.0110446503E+01   1.0000000000E+00     0.000   1.
3000022   2   5   0   0   0   -5.9034709577E+00   -1.9246680770E+01   -1.1478740632E+00   2.0165956582E+01   2.5000000000E-01   3.030168E+01   0.
13    1    7    0    0    0   1.1355041080E+01   2.1792650545E+01  -2.0654342422E+01   3.2100926180E+01   1.0500000000E-01     0.000   1.
-13    1    7    0    0    0   6.4095372866E+00   1.2494734254E+01  -1.1832434471E+01   1.8363498654E+01   1.0500000000E-01     0.000  -1.
13    1    9    0    0    0  -2.3850147600E+00  -7.7548619108E+00  -5.2577354163E-01   8.1310295460E+00   1.0500000000E-01     0.000  -1.
-13    1    9    0    0    0  -3.5184561977E+00  -1.1491818859E+01  -6.2210052161E-01   1.2034927036E+01   1.0500000000E-01     0.000   1.
</event>
<event>
 13   1  9.2978750E-05  1.2500000E+02  7.5467720E-03  1.2380620E-01
   21   -1    0    0  502  501   0.0000000000E+00   0.0000000000E+00   3.2936528104E+02   3.2936528104E+02   0.0000000000E+00     0.000  -1.
   21   -1    0    0  501  502   0.0000000000E+00   0.0000000000E+00  -1.1859932497E+01   1.1859932497E+01   0.0000000000E+00     0.000  -1.
   25    2    1    2    0    0   0.0000000000E+00   0.0000000000E+00   3.1750534854E+02   3.4122521354E+02   1.2500000000E+02  5.222E-08  -1.
3000002    2    3    0    0    0  -5.6361644645E+01  -7.2282890044E+00   2.2434560326E+02   2.3164592129E+02   1.0000000000E+01  3.176E-10   1.
3000002    2    3    0    0    0   5.6361644645E+01   7.2282890044E+00   9.3159745279E+01   1.0957929225E+02   1.0000000000E+01  1.256E-09   1.
3000001    1    4    0    0    0  -4.6816862083E+01  -2.8494694932E+00   1.7380898194E+02   1.8002916502E+02   1.0000000000E+00     0.000   1.
3000022   2   4   0   0   0   -9.5447825617E+00   -4.3788195112E+00   5.0536621316E+01   5.1616756277E+01   2.5000000000E-01   6.951619E-01   0.
3000001    1    5    0    0    0   5.2351281832E+00   3.3121465599E+00   7.9146783775E+00   1.0100446314E+01   1.0000000000E+00     0.000  -1.
3000022   2   5   0   0   0   5.1126516461E+01   3.9161424445E+00   8.5245066901E+01   9.9478845933E+01   2.5000000000E-01   3.315348E+00   0.
13    1    7    0    0    0  -3.3537429039E+00  -1.5326954572E+00   1.8026873040E+01   1.8400432697E+01   1.0500000000E-01     0.000   1.
-13    1    7    0    0    0  -6.1910396578E+00  -2.8461240540E+00   3.2509748276E+01   3.3216323580E+01   1.0500000000E-01     0.000  -1.
13    1    9    0    0    0   1.5518396607E+01   1.1466406039E+00   2.5829195828E+01   3.0154498837E+01   1.0500000000E-01     0.000  -1.
-13    1    9    0    0    0   3.5608119854E+01   2.7695018406E+00   5.9415871073E+01   6.9324347096E+01   1.0500000000E-01     0.000   1.
</event>
<event>
 13   1  9.2978750E-05  1.2500000E+02  7.5467720E-03  1.2380620E-01
   21   -1    0    0  502  501   0.0000000000E+00   0.0000000000E+00   1.2573096317E+02   1.2573096317E+02   0.0000000000E+00     0.000   1.
   21   -1    0    0  501  502   0.0000000000E+00   0.0000000000E+00  -3.1068321609E+01   3.1068321609E+01   0.0000000000E+00     0.000   1.
   25    2    1    2    0    0   0.0000000000E+00   0.0000000000E+00   9.4662641560E+01   1.5679928478E+02   1.2500000000E+02  2.521E-08  -1.
3000002    2    3    0    0    0   3.3325754375E+01  -5.8161250559E+00  -1.7386389577E+01   3.9328358189E+01   1.0000000000E+01  5.014E-10  -1.
3000002    2    3    0    0    0  -3.3325754375E+01   5.8161250559E+00   1.1204903114E+02   1.1747092659E+02   1.0000000000E+01  1.617E-09  -1.
3000001    1    4    0    0    0   1.8603683235E+01  -4.6301831895E+00  -1.5005206485E+01   2.4365792577E+01   1.0000000000E+00     0.000   1.
3000022   2   4   0   0   0   1.4722071140E+01   -1.1859418664E+00   -2.3811830920E+00   1.4962565612E+01   2.5000000000E-01   2.898246E+00   0.
3000001    1    5    0    0    0  -6.2413774933E+00  -6.3267203136E-01   1.1497038190E+01   1.3135332278E+01   1.0000000000E+00     0.000   1.
3000022   2   5   0   0   0   -2.7084376882E+01   6.4487970873E+00   1.0055199295E+02   1.0433559431E+02   2.5000000000E-01   6.024119E+00   0.
13    1    7    0    0    0   1.1063936103E+01  -8.7449522698E-01  -1.8086254826E+00   1.1245335706E+01   1.0500000000E-01     0.000  -1.
-13    1    7    0    0    0   3.6581350374E+00  -3.1144663945E-01  -5.7255760941E-01   3.7172299064E+00   1.0500000000E-01     0.000   1.
13    1    9    0    0    0  -1.0560122913E+01   2.5295272541E+00   3.8992843340E+01   4.0476753338E+01   1.0500000000E-01     0.000   1.
-13    1    9    0    0    0  -1.6524253969E+01   3.9192698332E+00   6.1559149607E+01   6.3858840975E+01   1.0500000000E-01     0.000  -1.
</event>
<event>
 13   1  9.2978750E-05  1.2500000E+02  7.5467720E-03  1.2380620E-01
   21   -1    0    0  502  501   0.0000000000E+00   0.0000000000E+00   3.7064484324E+01   3.7064484324E+01   0.0000000000E+00     0.000  -1.
   21   -1    0    0  501  502   0.0000000000E+00   0.0000000000E+00  -1.0539064744E+02   1.0539064744E+02   0.0000000000E+00     0.000  -1.
   25    2    1    2    0    0   0.0000000000E+00   0.0000000000E+00  -6.8326163118E+01   1.4245513177E+02   1.2500000000E+02  3.045E-08  -1.
3000002    2    3    0    0    0   2.0701281417E+01  -5.1859246588E+01  -6.4062656372E+01   8.5568384643E+01   1.0000000000E+01  2.076E-10   1.
3000002    2    3    0    0    0  -2.0701281417E+01   5.1859246588E+01  -4.2635067462E+00   5.6886747127E+01   1.0000000000E+01  1.758E-10   1.
3000001    1    4    0    0    0   1.1458267958E+01  -1.6118226284E+01  -2.3044776726E+01   3.0383397728E+01   1.0000000000E+00     0.000   1.
3000022   2   4   0   0   0   9.2430134592E+00   -3.5741020304E+01   -4.1017879646E+01   5.5184986915E+01   2.5000000000E-01   7.156553E+00   0.
3000001    1    5    0    0    0  -1.8234863325E+01   5.0663691926E+01  -4.8503399902E+00   5.4072596739E+01   1.0000000000E+00     0.000   1.
3000022   2   5   0   0   0   -2.4664180919E+00   1.1955546619E+00   5.8683324401E-01   2.8141503886E+00   2.5000000000E-01   2.807808E+00   0.
13    1    7    0    0    0   3.3694016289E+00  -1.2834544914E+01  -1.4696466396E+01   1.9800897960E+01   1.0500000000E-01     0.000  -1.
-13    1    7    0    0    0   5.8736118304E+00  -2.2906475390E+01  -2.6321413250E+01   3.5384088955E+01   1.0500000000E-01     0.000   1.
13    1    9    0    0    0  -9.3499185604E-01   5.1057338622E-01   2.6321431703E-01   1.1023618872E+00   1.0500000000E-01     0.000  -1.
-13    1    9    0    0    0  -1.5314262358E+00   6.8498127563E-01   3.2361892698E-01   1.7117885014E+00   1.0500000000E-01     0.000   1.
</event>
<event>
 13   1  9.2978750E-05  1.2500000E+02  7.5467720E-03  1.2380620E-01
   21   -1    0    0  502  501   0.0000000000E+00   0.0000000000E+00   8.2126649985E+02   8.2126649985E+02   0.0000000000E+00     0.000   1.
   21   -1    0    0  501  502   0.0000000000E+00   0.0000000000E+00  -4.7563732366E+00   4.7563732366E+00   0.0000000000E+00     0.000   1.
   25    2    1    2    0    0   0.0000000000E+00   0.0000000000E+00   8.1651012662E+02   8.2602287309E+02   1.2500000000E+02  9.003E-08  -1.
3000002    2    3    0    0    0   4.4411588194E+01  -3.0706254635E+01   6.0550536924E+02   6.0799014418E+02   1.0000000000E+01  1.338E-10   1.
3000002    2    3    0    0    0  -4.4411588194E+01   3.0706254635E+01   2.1100475738E+02   2.1803272891E+02   1.0000000000E+01  8.216E-10   1.
3000001    1    4    0    0    0   6.1553344297E+00  -7.9831162680E+00   1.3837226654E+02   1.3874257614E+02   1.0000000000E+00     0.000  -1.
3000022   2   4   0   0   0   3.8256253764E+01   -2.2723138367E+01   4.6713310270E+02   4.6924756803E+02   2.5000000000E-01   1.376485E+01   0.
3000001    1    5    0    0    0  -4.0496395075E+01   2.5593948819E+01   1.9447844590E+02   2.0029446859E+02   1.0000000000E+00     0.000   1.
3000022   2   5   0   0   0   -3.9151931189E+00   5.1123058158E+00   1.6526311482E+01   1.7738260319E+01   2.5000000000E-01   2.467576E+00   0.
13    1    7    0    0    0   1.7786498191E+01  -1.0629271384E+01   2.1713071653E+02   2.1811717038E+02   1.0500000000E-01     0.000  -1.
-13    1    7    0    0    0   2.0469755573E+01  -1.2093866983E+01   2.5000238616E+02   2.5113039765E+02   1.0500000000E-01     0.000   1.
13    1    9    0    0    0  -2.6502544227E+00   3.4240282005E+00   1.1238697637E+01   1.2044383222E+01   1.0500000000E-01     0.000   1.
-13    1    9    0    0    0  -1.2649386962E+00   1.6882776153E+00   5.2876138453E+00   5.6938770964E+00   1.0500000000E-01     0.000  -1.
</event>
<event>
 13   1  9.2978750E-05  1.2500000E+02  7.5467720E-03  1.2380620E-01
   21   -1    0    0  502  501   0.0000000000E+00   0.0000000000E+00   6.8131541443E+01   6.8131541443E+01   0.0000000000E+00     0.000   1.
   21   -1    0    0  501  502   0.0000000000E+00   0.0000000000E+00  -5.7333944268E+01   5.7333944268E+01   0.0000000000E+00     0.000   1.
   25    2    1    2    0    0   0.0000000000E+00   0.0000000000E+00   1.0797597175E+01   1.2546548571E+02   1.2500000000E+02  2.398E-08  -1.
3000002    2    3    0    0    0  -4.2108638571E+01  -4.5029734552E+01   3.0586870496E+00   6.2531352157E+01   1.0000000000E+01  3.707E-10  -1.
3000002    2    3    0    0    0   4.2108638571E+01   4.5029734552E+01   7.7389101254E+00   6.2934133553E+01   1.0000000000E+01  4.202E-10  -1.
3000001    1    4    0    0    0  -3.7614226155E+01  -4.3158830175E+01   1.0747166719E+00   5.7268400076E+01   1.0000000000E+00     0.000  -1.
3000022   2   4   0   0   0   -4.4944124153E+00   -1.8709043773E+00   1.9839703777E+00   5.2629520811E+00   2.5000000000E-01   2.562112E-01   0.
3000001    1    5    0    0    0   2.7047171738E+01   3.1533357156E+01   8.3970896455E-01   4.1564494749E+01   1.0000000000E+00     0.000  -1.
3000022   2   5   0   0   0   1.5061466832E+01   1.3496377396E+01   6.8992011609E+00   2.1369638804E+01   2.5000000000E-01   1.440388E+00   0.
13    1    7    0    0    0  -2.7110395053E+00  -1.1903111767E+00   1.1789842770E+00   3.1886681894E+00   1.0500000000E-01     0.000   1.
-13    1    7    0    0    0  -1.7833729100E+00  -6.8059320060E-01   8.0498610076E-01   2.0742838917E+00   1.0500000000E-01     0.000  -1.
13    1    9    0    0    0   1.0465717994E+01   9.3197525980E+00   4.7599300371E+00   1.4800574333E+01   1.0500000000E-01     0.000  -1.
-13    1    9    0    0    0   4.5957488380E+00   4.1766247985E+00   2.1392711237E+00   6.5690644714E+00   1.0500000000E-01     0.000   1.
</event>
<event>
 13   1  9.2978750E-05  1.2500000E+02  7.5467720E-03  1.2380620E-01
   21   -1    0    0  502  501   0.0000000000E+00   0.0000000000E+00   2.6667751445E+01   2.6667751445E+01   0.0000000000E+00     0.000   1.
   21   -1    0    0  501  502   0.0000000000E+00   0.0000000000E+00  -1.4647841638E+02   1.4647841638E+02   0.0000000000E+00     0.000   1.
   25    2    1    2    0    0   0.0000000000E+00   0.0000000000E+00  -1.1981066493E+02   1.7314616782E+02   1.2500000000E+02  3.275E-08  -1.
3000002    2    3    0    0    0  -7.0140036260E+00  -6.1039636895E+01  -6.7644510579E+01   9.1928305383E+01   1.0000000000E+01  2.279E-09   1.
3000002    2    3    0    0    0   7.0140036260E+00   6.1039636895E+01  -5.2166154351E+01   8.1217862437E+01   1.0000000000E+01  2.728E-11   1.
3000001    1    4    0    0    0   1.0173942485E+00  -1.9976282292E+01  -1.7289594522E+01   2.6457834832E+01   1.0000000000E+00     0.000  -1.
3000022   2   4   0   0   0   -8.0313978745E+00   -4.1063354603E+01   -5.0354916057E+01   6.5470470551E+01   2.5000000000E-01   1.321626E+01   0.
3000001    1    5    0    0    0   9.5245616215E+00   4.4733347268E+01  -3.8654028071E+01   5.9890930181E+01   1.0000000000E+00     0.000   1.
3000022   2   5   0   0   0   -2.5105579955E+00   1.6306289627E+01   -1.3512126280E+01   2.1326932256E+01   2.5000000000E-01   1.037512E+01   0.
13    1    7    0    0    0  -4.2115088064E+00  -2.1331147504E+01  -2.6253703144E+01   3.4088452796E+01   1.0500000000E-01     0.000  -1.
-13    1    7    0    0    0  -3.8198890682E+00  -1.9732207099E+01  -2.4101212913E+01   3.1382017755E+01   1.0500000000E-01     0.000   1.
13    1    9    0    0    0  -1.5977235399E+00   1.0698975553E+01  -8.8250342793E+00   1.3961126510E+01   1.0500000000E-01     0.000   1.
-13    1    9    0    0    0  -9.1283445555E-01   5.6073140737E+00  -4.6870920006E+00   7.3658057460E+00   1.0500000000E-01     0.000  -1.
</event>
<event>
 13   1  9.2978750E-05  1.2500000E+02  7.5467720E-03  1.2380620E-01
   21   -1    0    0  502  501   0.0000000000E+00   0.0000000000E+00   7.1617771564E+01   7.1617771564E+01   0.0000000000E+00     0.000  -1.
   21   -1    0    0  501  502   0.0000000000E+00   0.0000000000E+00  -5.4543026329E+01   5.4543026329E+01   0.0000000000E+00     0.000  -1.
   25    2    1    2    0    0   0.0000000000E+00   0.0000000000E+00   1.7074745235E+01   1.2616079789E+02   1.2500000000E+02  1.179E-07  -1.
3000002    2    3    0    0    0   6.2008671661E+00  -5.5355996228E+01   3.5307501078E+01   6.6703498442E+01   1.0000000000E+01  1.332E-09   1.
3000002    2    3    0    0    0  -6.2008671661E+00   5.5355996228E+01  -1.8232755843E+01   5.9457299448E+01   1.0000000000E+01  2.162E-10   1.
3000001    1    4    0    0    0  -7.4632086697E-01  -5.7856752350E-01   9.0362932925E-01   1.6456856262E+00   1.0000000000E+00     0.000  -1.
3000022   2   4   0   0   0   6.9471880331E+00   -5.4777428705E+01   3.4403871749E+01   6.5057812816E+01   2.5000000000E-01   6.699996E+00   0.
3000001    1    5    0    0    0  -8.2283428965E+00   4.3666526604E+01  -1.6752932792E+01   4.7498757138E+01   1.0000000000E+00     0.000   1.
3000022   2   5   0   0   0   2.0274757304E+00   1.1689469624E+01   -1.4798230512E+00   1.1958542310E+01   2.5000000000E-01   7.412962E+00   0.
13    1    7    0    0    0   2.8489241953E+00  -2.2193176164E+01   1.3878274423E+01   2.6330039181E+01   1.0500000000E-01     0.000   1.
-13    1    7    0    0    0   4.0982638378E+00  -3.2584252541E+01   2.0525597326E+01   3.8727773635E+01   1.0500000000E-01     0.000  -1.
13    1    9    0    0    0   8.5678257558E-01   4.7983333489E+00  -6.6780368963E-01   4.9208806201E+00   1.0500000000E-01     0.000  -1.
-13    1    9    0    0    0   1.1706931548E+00   6.8911362749E+00  -8.1201936161E-01   7.0376616902E+00   1.0500000000E-01     0.000   1.
</event>
<event>
 13   1  9.2978750E-05  1.2500000E+02  7.5467720E-03  1.2380620E-01
   21   -1    0    0  502  501   0.0000000000E+00   0.0000000000E+00   2.2512833682E+01   2.2512833682E+01   0.0000000000E+00     0.000   1.
   21   -1    0    0  501  502   0.0000000000E+00   0.0000000000E+00  -1.7351214224E+02   1.7351214224E+02   0.0000000000E+00     0.000   1.
   25    2    1    2    0    0   0.0000000000E+00   0.0000000000E+00  -1.5099930855E+02   1.9602497592E+02   1.2500000000E+02  1.757E-08  -1.
3000002    2    3    0    0    0  -4.0034874454E+01   3.4277988163E+01  -2.5207646469E+01   5.9272228619E+01   1.0000000000E+01  8.345E-10   1.
3000002    2    3    0    0    0   4.0034874454E+01  -3.4277988163E+01  -1.2579166208E+02   1.3675274730E+02   1.0000000000E+01  1.517E-09   1.
3000001    1    4    0    0    0  -1.8111358612E+01   1.1105686193E+01  -1.3986635625E+01   2.5455521065E+01   1.0000000000E+00     0.000   1.
3000022   2   4   0   0   0   -2.1923515842E+01   2.3172301970E+01   -1.1221010843E+01   3.3816707554E+01   2.5000000000E-01   6.258930E+00   0.
3000001    1    5    0    0    0   1.3229565330E+01  -1.6242693281E+01  -4.1927262791E+01   4.6880079447E+01   1.0000000000E+00     0.000  -1.
3000022   2   5   0   0   0   2.6805309124E+01   -1.8035294882E+01   -8.3864399291E+01   8.9872667853E+01   2.5000000000E-01   1.118310E+00   0.
13    1    7    0    0    0  -1.0916966898E+01   1.1443413976E+01  -5.5448279150E+00   1.6759714535E+01   1.0500000000E-01     0.000  -1.
-13    1    7    0    0    0  -1.1006548944E+01   1.1728887994E+01  -5.6761829282E+00   1.7056993020E+01   1.0500000000E-01     0.000   1.
13    1    9    0    0    0   1.6209808814E+01  -1.0933072241E+01  -5.0590338412E+01   5.4237287322E+01   1.0500000000E-01     0.000   1.
-13    1    9    0    0    0   1.0595500310E+01  -7.1022226412E+00  -3.3274060879E+01   3.5635380531E+01   1.0500000000E-01     0.000  -1.
</event>
<event>
 13   1  9.2978750E-05  1.2500000E+02  7.5467720E-03  1.2380620E-01
   21   -1    0    0  502  501   0.0000000000E+00   0.0000000000E+00   7.5422855511E+01   7.5422855511E+01   0.0000000000E+00     0.000   1.
   21   -1    0    0  501  502   0.0000000000E+00   0.0000000000E+00  -5.1791330009E+01   5.1791330009E+01   0.0000000000E+00     0.000   1.
   25    2    1    2    0    0   0.0000000000E+00   0.0000000000E+00   2.3631525501E+01   1.2721418552E+02   1.2500000000E+02  7.001E-08  -1.
3000002    2    3    0    0    0  -1.5385794735E+01  -5.8863087028E+01   1.4039864733E+00   6.1672983324E+01   1.0000000000E+01  7.547E-11   1.
3000002    2    3    0    0    0   1.5385794735E+01   5.8863087028E+01   2.2227539028E+01   6.5541202196E+01   1.0000000000E+01  1.334E-09   1.
3000001    1    4    0    0    0  -7.3920899008E+00  -2.4122438987E+01   5.3370692910E+00   2.5807350976E+01   1.0000000000E+00     0.000  -1.
3000022   2   4   0   0   0   -7.9937048345E+00   -3.4740648041E+01   -3.9330828177E+00   3.5865632348E+01   2.5000000000E-01   1.631724E+00   0.
3000001    1    5    0    0    0   7.7920567352E+00   3.5664870266E+01   8.3529037444E+00   3.7462916600E+01   1.0000000000E+00     0.000   1.
3000022   2   5   0   0   0   7.5937380002E+00   2.3198216762E+01   1.3874635283E+01   2.8078285596E+01   2.5000000000E-01   4.438994E-02   0.
13    1    7    0    0    0  -3.9380622510E+00  -1.7289109749E+01  -2.0121189577E+00   1.7846044321E+01   1.0500000000E-01     0.000   1.
-13    1    7    0    0    0  -4.0556425835E+00  -1.7451538292E+01  -1.9209638600E+00   1.8019588028E+01   1.0500000000E-01     0.000  -1.
13    1    9    0    0    0   4.6986047790E+00   1.4543386597E+01   8.7001427808E+00   1.7586656589E+01   1.0500000000E-01     0.000  -1.
-13    1    9    0    0    0   2.8951332212E+00   8.6548301648E+00   5.1744925025E+00   1.0491629006E+01   1.0500000000E-01     0.000   1.
</event>
<event>
 13   1  9.2978750E-05  1.2500000E+02  7.5467720E-03  1.2380620E-01
   21   -1    0    0  502  501   0.0000000000E+00   0.0000000000E+00   1.5426577430E+02   1.5426577430E+02   0.0000000000E+00     0.000   1.
   21   -1    0    0  501  502   0.0000000000E+00   0.0000000000E+00  -2.5321559611E+01   2.5321559611E+01   0.0000000000E+00     0.000   1.
   25    2    1    2    0    0   0.0000000000E+00   0.0000000000E+00   1.2894421469E+02   1.7958733392E+02   1.2500000000E+02  1.920E-08  -1.
3000002    2    3    0    0    0   4.4346531335E+01   1.9510733971E+01   1.1934885167E+02   1.2919532490E+02   1.0000000000E+01  5.198E-10   1.
3000002    2    3    0    0    0  -4.4346531335E+01  -1.9510733971E+01   9.5953630226E+00   5.0392009020E+01   1.0000000000E+01  8.619E-10   1.
3000001    1    4    0    0    0   3.8319093370E+01   1.4847595096E+01   9.1277537993E+01   1.0010690755E+02   1.0000000000E+00     0.000   1.
3000022   2   4   0   0   0   6.0274379658E+00   4.6631388748E+00   2.8071313674E+01   2.9088417351E+01   2.5000000000E-01   1.483357E+00   0.
3000001    1    5    0    0    0  -3.1782022517E+01  -1.3273690057E+01   1.1292107717E+01   3.6260164088E+01   1.0000000000E+00     0.000   1.
3000022   2   5   0   0   0   -1.2564508818E+01   -6.2370439139E+00   -1.6967446943E+00   1.4131844932E+01   2.5000000000E-01   5.469799E+00   0.
13    1    7    0    0    0   1.4497148460E+00   1.1443707530E+00   6.7672855938E+00   7.0155852830E+00   1.0500000000E-01     0.000  -1.
-13    1    7    0    0    0   4.5777231198E+00   3.5187681218E+00   2.1304028080E+01   2.2072832068E+01   1.0500000000E-01     0.000   1.
13    1    9    0    0    0  -9.3510200899E+00  -4.6330608165E+00  -1.2910118833E+00   1.0515919643E+01   1.0500000000E-01     0.000  -1.
-13    1    9    0    0    0  -3.2134887286E+00  -1.6039830973E+00  -4.0573281100E-01   3.6159252895E+00   1.0500000000E-01     0.000   1.
</event>
<event>
 13   1  9.2978750E-05  1.2500000E+02  7.5467720E-03  1.2380620E-01
   21   -1    0    0  502  501   0.0000000000E+00   0.0000000000E+00   2.4056928456E+01   2.4056928456E+01   0.0000000000E+00     0.000  -1.
   21   -1    0    0  501  502   0.0000000000E+00   0.0000000000E+00  -1.6237525946E+02   1.6237525946E+02   0.0000000000E+00     0.000  -1.
   25    2    1    2    0    0   0.0000000000E+00   0.0000000000E+00  -1.3831833101E+02   1.8643218792E+02   1.2500000000E+02  1.056E-07  -1.
3000002    2    3    0    0    0  -2.9939387553E+01   4.8332915571E+01  -3.3432224967E+01   6.6709454509E+01   1.0000000000E+01  5.009E-10   1.
3000002    2    3    0    0    0   2.9939387553E+01  -4.8332915571E+01  -1.0488610604E+02   1.1972273341E+02   1.0000000000E+01  4.666E-10   1.
3000001    1    4    0    0    0  -1.1686134258E+01   2.7940160360E+01  -1.6106514762E+01   3.4316732254E+01   1.0000000000E+00     0.000   1.
3000022   2   4   0   0   0   -1.8253253295E+01   2.0392755210E+01   -1.7325710205E+01   3.2392722255E+01   2.5000000000E-01   6.313317E+00   0.
3000001    1    5    0    0    0   4.2791296979E+00  -1.1158405075E+01  -1.5768631908E+01   1.9810873455E+01   1.0000000000E+00     0.000   1.
3000022   2   5   0   0   0   2.5660257855E+01   -3.7174510496E+01   -8.9117474135E+01   9.9911859956E+01   2.5000000000E-01   1.809858E+00   0.
13    1    7    0    0    0  -1.1019193184E+01   1.2328317032E+01  -1.0394560185E+01   1.9531203898E+01   1.0500000000E-01     0.000  -1.
-13    1    7    0    0    0  -7.2340601115E+00   8.0644381783E+00  -6.9311500201E+00   1.2861518356E+01   1.0500000000E-01     0.000   1.
13    1    9    0    0    0   1.7002273080E+01  -2.4670723028E+01  -5.9002504264E+01   6.6174227605E+01   1.0500000000E-01     0.000   1.
-13    1    9    0    0    0   8.6579847754E+00  -1.2503787467E+01  -3.0114969871E+01   3.3737632352E+01   1.0500000000E-01     0.000  -1.
</event>
<event>
 13   1  9.2978750E-05  1.2500000E+02  7.5467720E-03  1.2380620E-01
   21   -1    0    0  502  501   0.0000000000E+00   0.0000000000E+00   9.0003323936E+01   9.0003323936E+01   0.0000000000E+00     0.000   1.
   21   -1    0    0  501  502   0.0000000000E+00   0.0000000000E+00  -4.3401174858E+01   4.3401174858E+01   0.0000000000E+00     0.000   1.
   25    2    1    2    0    0   0.0000000000E+00   0.0000000000E+00   4.6602149078E+01   1.3340449879E+02   1.2500000000E+02  8.511E-08  -1.
3000002    2    3    0    0    0  -8.4842070960E+00   5.8352345783E+01   3.9351674317E+00   5.9937163523E+01   1.0000000000E+01  1.109E-10  -1.
3000002    2    3    0    0    0   8.4842070960E+00  -5.8352345783E+01   4.2666981646E+01   7.3467335267E+01   1.0000000000E+01  1.180E-09  -1.
3000001    1    4    0    0    0  -4.2063585390E+00   3.5894386521E+01   7.1351166600E+00   3.6851191645E+01   1.0000000000E+00     0.000  -1.
3000022   2   4   0   0   0   -4.2778485571E+00   2.2457959262E+01   -3.1999492282E+00   2.3085971878E+01   2.5000000000E-01   1.717695E+00   0.
3000001    1    5    0    0    0   7.6195124866E+00  -3.0263014327E+01   1.7796247015E+01   3.5939023561E+01   1.0000000000E+00     0.000  -1.
3000022   2   5   0   0   0   8.6469460949E-01   -2.8089331456E+01   2.4870734631E+01   3.7528311706E+01   2.5000000000E-01   2.426565E+00   0.
13    1    7    0    0    0  -1.7645137707E+00   9.5411646617E+00  -1.3977703850E+00   9.8036788503E+00   1.0500000000E-01     0.000   1.
-13    1    7    0    0    0  -2.5133347863E+00   1.2916794600E+01  -1.8021788432E+00   1.3282293028E+01   1.0500000000E-01     0.000  -1.
13    1    9    0    0    0   3.8641962560E-01  -1.4649460319E+01   1.2996069109E+01   1.9587364424E+01   1.0500000000E-01     0.000  -1.
-13    1    9    0    0    0   4.7827498388E-01  -1.3439871136E+01   1.1874665522E+01   1.7940947282E+01   1.0500000000E-01     0.000   1.
</event>
<event>
 13   1  9.2978750E-05  1.2500000E+02  7.5467720E-03  1.2380620E-01
   21   -1    0    0  502  501   0.0000000000E+00   0.0000000000E+00   2.4251452177E+00   2.4251452177E+00   0.0000000000E+00     0.000   1.
   21   -1    0    0  501  502   0.0000000000E+00   0.0000000000E+00  -1.6107282861E+03   1.6107282861E+03   0.0000000000E+00     0.000   1.
   25    2    1    2    0    0   0.0000000000E+00   0.0000000000E+00  -1.6083031409E+03   1.6131534313E+03   1.2500000000E+02  5.149E-09  -1.
3000002    2    3    0    0    0  -4.4979268019E+01  -2.3001157589E+01  -3.4714210166E+02   3.5094134346E+02   1.0000000000E+01  4.131E-10  -1.
3000002    2    3    0    0    0   4.4979268019E+01   2.3001157589E+01  -1.2611610392E+03   1.2622120878E+03   1.0000000000E+01  7.552E-10  -1.
3000001    1    4    0    0    0  -3.3236157563E+01  -1.6475588589E+01  -2.2202952091E+02   2.2510929644E+02   1.0000000000E+00     0.000  -1.
3000022   2   4   0   0   0   -1.1743110456E+01   -6.5255689993E+00   -1.2511258076E+02   1.2583204702E+02   2.5000000000E-01   1.288329E+00   0.
3000001    1    5    0    0    0   5.1674976708E+00   4.1350901831E+00  -1.0591673405E+02   1.0612801965E+02   1.0000000000E+00     0.000   1.
3000022   2   5   0   0   0   3.9811770349E+01   1.8866067405E+01   -1.1552443052E+03   1.1560840682E+03   2.5000000000E-01   3.993958E+00   0.
13    1    7    0    0    0  -5.1518436995E+00  -2.8848058687E+00  -5.4397858330E+01   5.4717470833E+01   1.0500000000E-01     0.000  -1.
-13    1    7    0    0    0  -6.5912667564E+00  -3.6407631306E+00  -7.0714722427E+01   7.1114576189E+01   1.0500000000E-01     0.000   1.
13    1    9    0    0    0   1.3128224697E+01   6.2159786046E+00  -3.8227760736E+02   3.8255348487E+02   1.0500000000E-01     0.000   1.
-13    1    9    0    0    0   2.6683545652E+01   1.2650088801E+01  -7.7296669783E+02   7.7353058332E+02   1.0500000000E-01     0.000  -1.
</event>
<event>
 13   1  9.2978750E-05  1.2500000E+02  7.5467720E-03  1.2380620E-01
   21   -1    0    0  502  501   0.0000000000E+00   0.0000000000E+00   1.3461320743E+02   1.3461320743E+02   0.0000000000E+00     0.000  -1.
   21   -1    0    0  501  502   0.0000000000E+00   0.0000000000E+00  -2.9018326467E+01   2.9018326467E+01   0.0000000000E+00     0.000  -1.
   25    2    1    2    0    0   0.0000000000E+00   0.0000000000E+00   1.0559488097E+02   1.6363153390E+02   1.2500000000E+02  1.146E-07  -1.
3000002    2    3    0    0    0  -5.1981204274E+01   2.7865980428E+01   7.6494234919E+01   9.7107808331E+01   1.0000000000E+01  9.385E-10   1.
3000002    2    3    0    0    0   5.1981204274E+01  -2.7865980428E+01   2.9100646051E+01   6.6523725569E+01   1.0000000000E+01  1.533E-10   1.
3000001    1    4    0    0    0  -2.5492424295E+01   1.0481515620E+01   2.9065754274E+01   4.0069239295E+01   1.0000000000E+00     0.000  -1.
3000022   2   4   0   0   0   -2.6488779980E+01   1.7384464807E+01   4.7428480645E+01   5.7038569036E+01   2.5000000000E-01   4.680267E+00   0.
3000001    1    5    0    0    0   5.1441486500E+01  -2.8063417500E+01   2.7369936601E+01   6.4683037688E+01   1.0000000000E+00     0.000   1.
3000022   2   5   0   0   0   5.3971777469E-01   1.9743707200E-01   1.7307094501E+00   1.8406878807E+00   2.5000000000E-01   2.328105E+00   1.
13    1    7    0    0    0  -1.4610921677E+01   9.5988575868E+00   2.6049964104E+01   3.1372420277E+01   1.0500000000E-01     0.000   1.
-13    1    7    0    0    0  -1.1877858303E+01   7.7856072206E+00   2.1378516541E+01   2.5666148760E+01   1.0500000000E-01     0.000  -1.
13    1    9    0    0    0   2.3716077288E-01   1.5457831741E-01   7.6908240745E-01   8.2622783653E-01   1.0500000000E-01     0.000  -1.
-13    1    9    0    0    0   3.0255700181E-01   4.2858754595E-02   9.6162704262E-01   1.0144600442E+00   1.0500000000E-01     0.000   1.
</event>
<event>
 13   1  9.2978750E-05  1.2500000E+02  7.5467720E-03  1.2380620E-01
   21   -1    0    0  502  501   0.0000000000E+00   0.0000000000E+00   3.6701442109E+01   3.6701442109E+01   0.0000000000E+00     0.000   1.
   21   -1    0    0  501  502   0.0000000000E+00   0.0000000000E+00  -1.0643314746E+02   1.0643314746E+02   0.0000000000E+00     0.000   1.
   25    2    1    2    0    0   0.0000000000E+00   0.0000000000E+00  -6.9731705350E+01   1.4313458957E+02   1.2500000000E+02  2.866E-08  -1.
3000002    2    3    0    0    0   4.4610984399E+01   4.2528644142E+01  -3.1745755328E+01   7.0047258926E+01   1.0000000000E+01  5.941E-10   1.
3000002    2    3    0    0    0  -4.4610984399E+01  -4.2528644142E+01  -3.7985950022E+01   7.3087330644E+01   1.0000000000E+01  1.834E-10   1.
3000001    1    4    0    0    0   1.1718317723E+01   6.1674847272E+00  -8.6463439613E+00   1.5846643241E+01   1.0000000000E+00     0.000  -1.
3000022   2   4   0   0   0   3.2892666676E+01   3.6361159415E+01   -2.3099411366E+01   5.4200615684E+01   2.5000000000E-01   2.535551E+00   0.
3000001    1    5    0    0    0  -3.4291826484E+01  -2.8950981488E+01  -2.3281327922E+01   5.0567864525E+01   1.0000000000E+00     0.000   1.
3000022   2   5   0   0   0   -1.0319157915E+01   -1.3577662654E+01   -1.4704622100E+01   2.2519466120E+01   2.5000000000E-01   2.243884E+00   0.
13    1    7    0    0    0   2.2790102269E+01   2.5203704192E+01  -1.5956127237E+01   3.7539638888E+01   1.0500000000E-01     0.000  -1.
-13    1    7    0    0    0   1.0102564407E+01   1.1157455223E+01  -7.1432841290E+00   1.6660976796E+01   1.0500000000E-01     0.000   1.
13    1    9    0    0    0  -4.9474899749E+00  -6.5185100423E+00  -6.9671217680E+00   1.0748043587E+01   1.0500000000E-01     0.000   1.
-13    1    9    0    0    0  -5.3716679399E+00  -7.0591526118E+00  -7.7375003318E+00   1.1771422532E+01   1.0500000000E-01     0.000  -1.
</event>
<event>
 13   1  9.2978750E-05  1.2500000E+02  7.5467720E-03  1.2380620E-01
   21   -1    0    0  502  501   0.0000000000E+00   0.0000000000E+00   2.0337228619E+01   2.0337228619E+01   0.0000000000E+00     0.000   1.
   21   -1    0    0  501  502   0.0000000000E+00   0.0000000000E+00  -1.9207385988E+02   1.9207385988E+02   0.0000000000E+00     0.000   1.
   25    2    1    2    0    0   0.0000000000E+00   0.0000000000E+00  -1.7173663126E+02   2.1241108850E+02   1.2500000000E+02  5.227E-08  -1.
3000002    2    3    0    0    0   1.0115426154E+01  -2.1944870579E+01  -1.8232972013E+02   1.8419561893E+02   1.0000000000E+01  1.696E-09   1.
3000002    2    3    0    0    0  -1.0115426154E+01   2.1944870579E+01   1.0593088872E+01   2.8215469566E+01   1.0000000000E+01  1.938E-10   1.
3000001    1    4    0    0    0   3.3027279645E+00  -1.6674225615E+01  -1.0283133838E+02   1.0423157854E+02   1.0000000000E+00     0.000  -1.
3000022   2   4   0   0   0   6.8126981893E+00   -5.2706449633E+00   -7.9498381747E+01   7.9964040389E+01   2.5000000000E-01   5.123110E+00   0.
3000001    1    5    0    0    0  -1.0124918784E+01   1.0755183361E+01   7.5379396650E+00   1.6613503059E+01   1.0000000000E+00     0.000   1.
3000022   2   5   0   0   0   9.4926305093E-03   1.1189687218E+01   3.0551492070E+00   1.1601966507E+01   2.5000000000E-01   9.450456E-02   0.
13    1    7    0    0    0   4.5027676355E+00  -3.4214289134E+00  -5.1944627615E+01   5.2251664617E+01   1.0500000000E-01     0.000   1.
-13    1    7    0    0    0   2.3099305538E+00  -1.8492160500E+00  -2.7553754132E+01   2.7712375772E+01   1.0500000000E-01     0.000  -1.
13    1    9    0    0    0   5.3153460987E-02   4.0606016857E+00   1.1409259531E+00   4.2194843727E+00   1.0500000000E-01     0.000   1.
-13    1    9    0    0    0  -4.3660830478E-02   7.1290855324E+00   1.9142232538E+00   7.3824821342E+00   1.0500000000E-01     0.000  -1.
</event>
<event>
 13   1  9.2978750E-05  1.2500000E+02  7.5467720E-03  1.2380620E-01
   21   -1    0    0  502  501   0.0000000000E+00   0.0000000000E+00   2.7776837254E+01   2.7776837254E+01   0.0000000000E+00     0.000   1.
   21   -1    0    0  501  502   0.0000000000E+00   0.0000000000E+00  -1.4062976156E+02   1.4062976156E+02   0.0000000000E+00     0.000   1.
   25    2    1    2    0    0   0.0000000000E+00   0.0000000000E+00  -1.1285292431E+02   1.6840659882E+02   1.2500000000E+02  1.232E-08  -1.
3000002    2    3    0    0    0  -4.1281820736E+01  -3.2476837632E+01  -1.0002661603E+02   1.1342071072E+02   1.0000000000E+01  1.735E-09   1.
3000002    2    3    0    0    0   4.1281820736E+01   3.2476837632E+01  -1.2826308278E+01   5.4985888098E+01   1.0000000000E+01  6.214E-11   1.
3000001    1    4    0    0    0  -2.3443489534E+01  -1.6908444452E+01  -4.4705846467E+01   5.3245707843E+01   1.0000000000E+00     0.000  -1.
3000022   2   4   0   0   0   -1.7838331202E+01   -1.5568393181E+01   -5.5320769564E+01   6.0175002879E+01   2.5000000000E-01   2.216966E+00   0.
3000001    1    5    0    0    0   4.0161203183E+00   6.0390603253E+00  -4.3451883094E+00   8.5135265001E+00   1.0000000000E+00     0.000  -1.
3000022   2   5   0   0   0   3.7265700418E+01   2.6437777307E+01   -8.4811199689E+00   4.6472361598E+01   2.5000000000E-01   8.504034E+00   0.
13    1    7    0    0    0  -8.8920478286E+00  -7.8372818307E+00  -2.7784272211E+01   3.0207090366E+01   1.0500000000E-01     0.000  -1.
-13    1    7    0    0    0  -8.9462833731E+00  -7.7311113501E+00  -2.7536497354E+01   2.9967912513E+01   1.0500000000E-01     0.000   1.
13    1    9    0    0    0   2.4854904157E+01   1.7643627412E+01  -5.7113322381E+00   3.1011194589E+01   1.0500000000E-01     0.000  -1.
-13    1    9    0    0    0   1.2410796261E+01   8.7941498955E+00  -2.7697877309E+00   1.5461167010E+01   1.0500000000E-01     0.000   1.
</event>
<event>
 13   1  9.2978750E-05  1.2500000E+02  7.5467720E-03  1.2380620E-01
   21   -1    0    0  502  501   0.0000000000E+00   0.0000000000E+00   8.3221219282E+01   8.3221219282E+01   0.0000000000E+00     0.000   1.
   21   -1    0    0  501  502   0.0000000000E+00   0.0000000000E+00  -4.6938149113E+01   4.6938149113E+01   0.0000000000E+00     0.000   1.
   25    2    1    2    0    0   0.0000000000E+00   0.0000000000E+00   3.6283070169E+01   1.3015936839E+02   1.2500000000E+02  2.152E-08  -1.
3000002    2    3    0    0    0  -2.5231147802E+01   1.4514255865E+01   7.4783212762E+01   8.0869050655E+01   1.0000000000E+01  1.162E-10   1.
3000002    2    3    0    0    0   2.5231147802E+01  -1.4514255865E+01  -3.8500142593E+01   4.9290317735E+01   1.0000000000E+01  3.180E-11   1.
3000001    1    4    0    0    0  -1.4121540592E+00   2.9749494221E+00   3.8788394223E+00   5.1855470700E+00   1.0000000000E+00     0.000   1.
3000022   2   4   0   0   0   -2.3818993743E+01   1.1539306443E+01   7.0904373340E+01   7.5683503585E+01   2.5000000000E-01   2.946780E+00   0.
3000001    1    5    0    0    0   8.5316923757E+00  -1.1279104428E-01  -1.2932178863E+01   1.5525583620E+01   1.0000000000E+00     0.000  -1.
3000022   2   5   0   0   0   1.6699455427E+01   -1.4401464820E+01   -2.5567963731E+01   3.3764734115E+01   2.5000000000E-01   1.036433E-01   0.
13    1    7    0    0    0  -1.4363985017E+01   7.0278880263E+00   4.2818540208E+01   4.5707260760E+01   1.0500000000E-01     0.000   1.
-13    1    7    0    0    0  -9.4550087266E+00   4.5114184164E+00   2.8085833133E+01   2.9976242825E+01   1.0500000000E-01     0.000  -1.
13    1    9    0    0    0   7.4750681930E+00  -6.3997967400E+00  -1.1495914467E+01   1.5132782865E+01   1.0500000000E-01     0.000  -1.
-13    1    9    0    0    0   9.2243872336E+00  -8.0016680805E+00  -1.4072049264E+01   1.8631951250E+01   1.0500000000E-01     0.000   1.
</event>
<event>
 13   1  9.2978750E-05  1.2500000E+02  7.5467720E-03  1.2380620E-01
   21   -1    0    0  502  501   0.0000000000E+00   0.0000000000E+00   2.5174042513E+02   2.5174042513E+02   0.0000000000E+00     0.000  -1.
   21   -1    0    0  501  502   0.0000000000E+00   0.0000000000E+00  -1.5516975464E+01   1.5516975464E+01   0.0000000000E+00     0.000  -1.
   25    2    1    2    0    0   0.0000000000E+00   0.0000000000E+00   2.3622344967E+02   2.6725740060E+02   1.2500000000E+02  5.382E-09  -1.
3000002    2    3    0    0    0  -1.2666342638E+01   7.8360897007E+00   2.4611719662E+02   2.4677016637E+02   1.0000000000E+01  1.089E-09   1.
3000002    2    3    0    0    0   1.2666342638E+01  -7.8360897007E+00  -9.8937469517E+00   2.0487234229E+01   1.0000000000E+01  8.168E-10   1.
3000001    1    4    0    0    0  -1.1469473528E+01   3.9494290793E+00   1.2665316306E+02   1.2723667131E+02   1.0000000000E+00     0.000   1.
3000022   2   4   0   0   0   -1.1968691103E+00   3.8866606215E+00   1.1946403356E+02   1.1953349506E+02   2.5000000000E-01   5.605740E-01   0.
3000001    1    5    0    0    0   2.5851501119E+00  -7.1599564691E+00  -5.6150527049E+00   9.5119290693E+00   1.0000000000E+00     0.000   1.
3000022   2   5   0   0   0   1.0081192526E+01   -6.7613323163E-01   -4.2786942468E+00   1.0975305160E+01   2.5000000000E-01   6.773994E+00   0.
13    1    7    0    0    0  -6.0844161220E-01   2.1874089316E+00   6.7308939790E+01   6.7347304027E+01   1.0500000000E-01     0.000  -1.
-13    1    7    0    0    0  -5.8842749807E-01   1.6992516899E+00   5.2155093771E+01   5.2186191032E+01   1.0500000000E-01     0.000   1.
13    1    9    0    0    0   5.2570852341E+00  -3.1442333569E-01  -2.2907684602E+00   5.7440797636E+00   1.0500000000E-01     0.000   1.
-13    1    9    0    0    0   4.8241072923E+00  -3.6170989593E-01  -1.9879257866E+00   5.2312253965E+00   1.0500000000E-01     0.000  -1.
</event>
<event>
 13   1  9.2978750E-05  1.2500000E+02  7.5467720E-03  1.2380620E-01
   21   -1    0    0  502  501   0.0000000000E+00   0.0000000000E+00   1.0833199128E+01   1.0833199128E+01   0.0000000000E+00     0.000   1.
   21   -1    0    0  501  502   0.0000000000E+00   0.0000000000E+00  -3.6058139003E+02   3.6058139003E+02   0.0000000000E+00     0.000   1.
   25    2    1    2    0    0   0.0000000000E+00   0.0000000000E+00  -3.4974819090E+02   3.7141458916E+02   1.2500000000E+02  6.971E-09  -1.
3000002    2    3    0    0    0  -6.0680916691E+01   1.1129632836E+01  -1.7352019430E+02   1.8443237299E+02   1.0000000000E+01  3.197E-11   1.
3000002    2    3    0    0    0   6.0680916691E+01  -1.1129632836E+01  -1.7622799660E+02   1.8698221617E+02   1.0000000000E+01  3.784E-11   1.
3000001    1    4    0    0    0  -2.6016095951E+01   5.6910564692E+00  -6.0993843611E+01   6.6561808349E+01   1.0000000000E+00     0.000   1.
3000022   2   4   0   0   0   -3.4664820740E+01   5.4385763665E+00   -1.1252635069E+02   1.1787056464E+02   2.5000000000E-01   4.477080E-01   0.
3000001    1    5    0    0    0   4.6360902251E+01  -1.1592120746E+01  -1.4360028957E+02   1.5134646902E+02   1.0000000000E+00     0.000  -1.
3000022   2   5   0   0   0   1.4320014440E+01   4.6248791011E-01   -3.2627707036E+01   3.5635747152E+01   2.5000000000E-01   6.717085E+00   0.
13    1    7    0    0    0  -1.5899424863E+01   2.5377039588E+00  -5.1459690850E+01   5.3919778001E+01   1.0500000000E-01     0.000  -1.
-13    1    7    0    0    0  -1.8765395877E+01   2.9008724077E+00  -6.1066659835E+01   6.3950786638E+01   1.0500000000E-01     0.000   1.
13    1    9    0    0    0   5.1097777005E+00   1.2074102637E-01  -1.1732283941E+01   1.2797730972E+01   1.0500000000E-01     0.000   1.
-13    1    9    0    0    0   9.2102367392E+00   3.4174688374E-01  -2.0895423095E+01   2.2838016180E+01   1.0500000000E-01     0.000  -1.
</event>
<event>
 13   1  9.2978750E-05  1.2500000E+02  7.5467720E-03  1.2380620E-01
   21   -1    0    0  502  501   0.0000000000E+00   0.0000000000E+00   2.9713734537E+01   2.9713734537E+01   0.0000000000E+00     0.000   1.
   21   -1    0    0  501  502   0.0000000000E+00   0.0000000000E+00  -1.3146277507E+02   1.3146277507E+02   0.0000000000E+00     0.000   1.
   25    2    1    2    0    0   0.0000000000E+00   0.0000000000E+00  -1.0174904053E+02   1.6117650961E+02   1.2500000000E+02  2.332E-08  -1.
3000002    2    3    0    0    0  -4.1028761574E+01  -1.2697658021E+01   6.2343573000E+00   4.4536019203E+01   1.0000000000E+01  7.809E-10   1.
3000002    2    3    0    0    0   4.1028761574E+01   1.2697658021E+01  -1.0798339783E+02   1.1664049041E+02   1.0000000000E+01  1.101E-10   1.
3000001    1    4    0    0    0  -2.8134626213E+01  -9.6062254777E+00   8.8160855800E+00   3.1025153102E+01   1.0000000000E+00     0.000   1.
3000022   2   4   0   0   0   -1.2894135361E+01   -3.0914325429E+00   -2.5817282801E+00   1.3510866101E+01   2.5000000000E-01   3.360018E+00   0.
3000001    1    5    0    0    0   2.5241157977E+01   1.2336274600E+01  -6.3795354505E+01   6.9714754417E+01   1.0000000000E+00     0.000  -1.
3000022   2   5   0   0   0   1.5787603597E+01   3.6138342084E-01   -4.4188043325E+01   4.6925735990E+01   2.5000000000E-01   8.740532E-01   0.
13    1    7    0    0    0  -6.1222048318E+00  -1.4290411282E+00  -1.1670350681E+00   6.3950407660E+00   1.0500000000E-01     0.000   1.
-13    1    7    0    0    0  -6.7719305294E+00  -1.6623914148E+00  -1.4146932119E+00   7.1158253347E+00   1.0500000000E-01     0.000  -1.
13    1    9    0    0    0   1.0346005812E+01   1.8185376266E-01  -2.8977830537E+01   3.0770092536E+01   1.0500000000E-01     0.000  -1.
-13    1    9    0    0    0   5.4415977849E+00   1.7952965818E-01  -1.5210212788E+01   1.6155643454E+01   1.0500000000E-01     0.000   1.
</event>
<event>
 13   1  9.2978750E-05  1.2500000E+02  7.5467720E-03  1.2380620E-01
   21   -1    0    0  502  501   0.0000000000E+00   0.0000000000E+00   5.2542383016E+01   5.2542383016E+01   0.0000000000E+00     0.000   1.
   21   -1    0    0  501  502   0.0000000000E+00   0.0000000000E+00  -7.4344743725E+01   7.4344743725E+01   0.0000000000E+00     0.000   1.
   25    2    1    2    0    0   0.0000000000E+00   0.0000000000E+00  -2.1802360709E+01   1.2688712674E+02   1.2500000000E+02  5.194E-08  -1.
3000002    2    3    0    0    0   5.4826799203E+01   1.9031249192E+01  -3.2147615374E+01   6.7094228745E+01   1.0000000000E+01  3.761E-10  -1.
3000002    2    3    0    0    0  -5.4826799203E+01  -1.9031249192E+01   1.0345254665E+01   5.9792897995E+01   1.0000000000E+01  1.767E-09  -1.
3000001    1    4    0    0    0   1.7432798396E+01   1.1011192785E+01  -1.0970659021E+01   2.3377428982E+01   1.0000000000E+00     0.000   1.
3000022   2   4   0   0   0   3.7394000807E+01   8.0200564072E+00   -2.1176956353E+01   4.3716799763E+01   2.5000000000E-01   4.358087E+00   0.
3000001    1    5    0    0    0  -3.6218443659E+01  -1.4622470907E+01   2.5970554711E+00   3.9157847408E+01   1.0000000000E+00     0.000  -1.
3000022   2   5   0   0   0   -1.8608355543E+01   -4.4087782854E+00   7.7481991937E+00   2.0635050587E+01   2.5000000000E-01   7.765422E+00   0.
13    1    7    0    0    0   1.7224247867E+01   3.7118382190E+00  -9.6823965510E+00   2.0105031348E+01   1.0500000000E-01     0.000  -1.
-13    1    7    0    0    0   2.0169752940E+01   4.3082181882E+00  -1.1494559802E+01   2.3611768415E+01   1.0500000000E-01     0.000   1.
13    1    9    0    0    0  -6.0121044648E+00  -1.4054728985E+00   2.5535394675E+00   6.6822408649E+00   1.0500000000E-01     0.000   1.
-13    1    9    0    0    0  -1.2596251079E+01  -3.0033053869E+00   5.1946597261E+00   1.3952809723E+01   1.0500000000E-01     0.000  -1.
</event>
<event>
 13   1  9.2978750E-05  1.2500000E+02  7.5467720E-03  1.2380620E-01
   21   -1    0    0  502  501   0.0000000000E+00   0.0000000000E+00   6.2263775760E+01   6.2263775760E+01   0.0000000000E+00     0.000  -1.
   21   -1    0    0  501  502   0.0000000000E+00   0.0000000000E+00  -6.2737120457E+01   6.2737120457E+01   0.0000000000E+00     0.000  -1.
   25    2    1    2    0    0   0.0000000000E+00   0.0000000000E+00  -4.7334469717E-01   1.2500089622E+02   1.2500000000E+02  1.650E-08  -1.
3000002    2    3    0    0    0   3.5713231337E+01   3.3288151541E+01  -3.7955824985E+01   6.2643280373E+01   1.0000000000E+01  3.232E-10  -1.
3000002    2    3    0    0    0  -3.5713231337E+01  -3.3288151541E+01   3.7482480288E+01   6.2357615847E+01   1.0000000000E+01  8.716E-11  -1.
3000001    1    4    0    0    0   1.8732467180E+00   4.2465734180E+00  -6.5942786963E+00   8.1256969292E+00   1.0000000000E+00     0.000   1.
3000022   2   4   0   0   0   3.3839984619E+01   2.9041578123E+01   -3.1361546289E+01   5.4517583444E+01   2.5000000000E-01   3.378109E+00   0.
3000001    1    5    0    0    0  -3.2745078427E+01  -3.2329907986E+01   3.7264864822E+01   5.9221054211E+01   1.0000000000E+00     0.000  -1.
3000022   2   5   0   0   0   -2.9681529101E+00   -9.5824355456E-01   2.1761546612E-01   3.1365616363E+00   2.5000000000E-01   2.201267E+00   0.
13    1    7    0    0    0   2.1996652770E+01   1.8896563791E+01  -2.0327410698E+01   3.5413945090E+01   1.0500000000E-01     0.000  -1.
-13    1    7    0    0    0   1.1843331850E+01   1.0145014332E+01  -1.1034135591E+01   1.9103638354E+01   1.0500000000E-01     0.000   1.
13    1    9    0    0    0  -1.5627440280E+00  -4.7865930008E-01   5.0917153310E-02   1.6385668064E+00   1.0500000000E-01     0.000  -1.
-13    1    9    0    0    0  -1.4054088821E+00  -4.7958425448E-01   1.6669831281E-01   1.4979948299E+00   1.0500000000E-01     0.000   1.
</event>
<event>
 13   1  9.2978750E-05  1.2500000E+02  7.5467720E-03  1.2380620E-01
   21   -1    0    0  502  501   0.0000000000E+00   0.0000000000E+00   2.7488897084E+02   2.7488897084E+02   0.0000000000E+00     0.000  -1.
   21   -1    0    0  501  502   0.0000000000E+00   0.0000000000E+00  -1.4210282748E+01   1.4210282748E+01   0.0000000000E+00     0.000  -1.
   25    2    1    2    0    0   0.0000000000E+00   0.0000000000E+00   2.6067868809E+02   2.8909925358E+02   1.2500000000E+02  3.637E-09  -1.
3000002    2    3    0    0    0   2.4283405494E+01   3.6323353323E+01   2.3107686322E+02   2.3538391299E+02   1.0000000000E+01  8.377E-10   1.
3000002    2    3    0    0    0  -2.4283405494E+01  -3.6323353323E+01   2.9601824869E+01   5.3715340589E+01   1.0000000000E+01  3.725E-10   1.
3000001    1    4    0    0    0   4.3473099564E+00   8.0848058594E+00   7.2329613380E+01   7.2916638440E+01   1.0000000000E+00     0.000  -1.
3000022   2   4   0   0   0   1.9936095537E+01   2.8238547464E+01   1.5874724984E+02   1.6246727455E+02   2.5000000000E-01   1.428092E+00   0.
3000001    1    5    0    0    0  -5.0288644321E+00  -3.0083850231E+00   1.6958998399E+00   6.1819037675E+00   1.0000000000E+00     0.000   1.
3000022   2   5   0   0   0   -1.9254541061E+01   -3.3314968300E+01   2.7905925029E+01   4.7533436821E+01   2.5000000000E-01   5.943455E+00   0.
13    1    7    0    0    0   8.4218720140E+00   1.2016449863E+01   6.7584144891E+01   6.9158879843E+01   1.0500000000E-01     0.000  -1.
-13    1    7    0    0    0   1.1514223523E+01   1.6222097601E+01   9.1163104950E+01   9.3308394709E+01   1.0500000000E-01     0.000   1.
13    1    9    0    0    0  -9.5095997365E+00  -1.6359781152E+01   1.3663098516E+01   2.3340227345E+01   1.0500000000E-01     0.000  -1.
-13    1    9    0    0    0  -9.7449413250E+00  -1.6955187148E+01   1.4242826514E+01   2.4193209476E+01   1.0500000000E-01     0.000   1.
</event>
<event>
 13   1  9.2978750E-05  1.2500000E+02  7.5467720E-03  1.2380620E-01
   21   -1    0    0  502  501   0.0000000000E+00   0.0000000000E+00   2.9358504506E+02   2.9358504506E+02   0.0000000000E+00     0.000   1.
   21   -1    0    0  501  502   0.0000000000E+00   0.0000000000E+00  -1.3305343939E+01   1.3305343939E+01   0.0000000000E+00     0.000   1.
   25    2    1    2    0    0   0.0000000000E+00   0.0000000000E+00   2.8027970112E+02   3.0689038900E+02   1.2500000000E+02  1.223E-09  -1.
3000002    2    3    0    0    0   6.8068339228E+00  -2.4179022742E+01   1.7943304358E+00   2.7095714615E+01   1.0000000000E+01  1.472E-10   1.
3000002    2    3    0    0    0  -6.8068339228E+00   2.4179022742E+01   2.7848537068E+02   2.7979467438E+02   1.0000000000E+01  1.606E-10   1.
3000001    1    4    0    0    0   6.0321211156E+00  -2.4878465750E+01   2.6046572033E+00   2.5750898671E+01   1.0000000000E+00     0.000   1.
3000022   2   4   0   0   0   7.7471280720E-01   6.9944300767E-01   -8.1032676757E-01   1.3448159446E+00   2.5000000000E-01   5.323752E+00   0.
3000001    1    5    0    0    0  -6.4071817181E+00   1.7738015949E+01   1.5598539250E+02   1.5712457433E+02   1.0000000000E+00     0.000   1.
3000022   2   5   0   0   0   -3.9965220478E-01   6.4410067928E+00   1.2249997819E+02   1.2267010005E+02   2.5000000000E-01   2.566360E+00   0.
13    1    7    0    0    0   5.7919794961E-01   4.6247580208E-01  -5.6904749585E-01   9.4031600267E-01   1.0500000000E-01     0.000  -1.
-13    1    7    0    0    0   1.9551485760E-01   2.3696720559E-01  -2.4127927172E-01   4.0449994194E-01   1.0500000000E-01     0.000   1.
13    1    9    0    0    0  -2.3653291342E-01   4.5253318387E+00   8.6165684553E+01   8.6284823669E+01   1.0500000000E-01     0.000  -1.
-13    1    9    0    0    0  -1.6311929136E-01   1.9156749541E+00   3.6334293635E+01   3.6385276382E+01   1.0500000000E-01     0.000   1.
</event>
<event>
 13   1  9.2978750E-05  1.2500000E+02  7.5467720E-03  1.2380620E-01
   21   -1    0    0  502  501   0.0000000000E+00   0.0000000000E+00   3.7666290333E+01   3.7666290333E+01   0.0000000000E+00     0.000   1.
   21   -1    0    0  501  502   0.0000000000E+00   0.0000000000E+00  -1.0370678836E+02   1.0370678836E+02   0.0000000000E+00     0.000   1.
   25    2    1    2    0    0   0.0000000000E+00   0.0000000000E+00  -6.6040498031E+01   1.4137307870E+02   1.2500000000E+02  2.956E-08  -1.
3000002    2    3    0    0    0  -5.4870286349E+01   2.6280108403E+01  -2.1438967592E+01   6.5276502304E+01   1.0000000000E+01  6.973E-11  -1.
3000002    2    3    0    0    0   5.4870286349E+01  -2.6280108403E+01  -4.4601530439E+01   7.6096576396E+01   1.0000000000E+01  2.823E-10  -1.
3000001    1    4    0    0    0  -1.9704927154E+01   8.9872980125E+00  -1.2697376091E+01   2.5125266950E+01   1.0000000000E+00     0.000   1.
3000022   2   4   0   0   0   -3.5165359195E+01   1.7292810390E+01   -8.7415915008E+00   4.0151235354E+01   2.5000000000E-01   2.796661E+00   0.
3000001    1    5    0    0    0   3.3576416241E+01  -1.0711454931E+01  -2.4595755506E+01   4.2989093771E+01   1.0000000000E+00     0.000   1.
3000022   2   5   0   0   0   2.1293870108E+01   -1.5568653472E+01   -2.0005774933E+01   3.3107482625E+01   2.5000000000E-01   4.749332E-01   0.
13    1    7    0    0    0  -2.3485122312E+01   1.1511818553E+01  -5.8770338509E+00   2.6807153678E+01   1.0500000000E-01     0.000  -1.
-13    1    7    0    0    0  -1.1680236883E+01   5.7809918372E+00  -2.8645576499E+00   1.3344081677E+01   1.0500000000E-01     0.000   1.
13    1    9    0    0    0   7.8111823658E+00  -5.6536770358E+00  -7.2675153317E+00   1.2075033668E+01   1.0500000000E-01     0.000   1.
-13    1    9    0    0    0   1.3482687742E+01  -9.9149764358E+00  -1.2738259601E+01   2.1032448957E+01   1.0500000000E-01     0.000  -1.
</event>
<event>
 13   1  9.2978750E-05  1.2500000E+02  7.5467720E-03  1.2380620E-01
   21   -1    0    0  502  501   0.0000000000E+00   0.0000000000E+00   3.0984242924E+01   3.0984242924E+01   0.0000000000E+00     0.000  -1.
   21   -1    0    0  501  502   0.0000000000E+00   0.0000000000E+00  -1.2607214608E+02   1.2607214608E+02   0.0000000000E+00     0.000  -1.
   25    2    1    2    0    0   0.0000000000E+00   0.0000000000E+00  -9.5087903153E+01   1.5705638900E+02   1.2500000000E+02  6.030E-08  -1.
3000002    2    3    0    0    0  -2.1143655684E+01   1.5429268972E+01   2.2650335325E+01   3.6029907119E+01   1.0000000000E+01  3.910E-10  -1.
3000002    2    3    0    0    0   2.1143655684E+01  -1.5429268972E+01  -1.1773823848E+02   1.2102648188E+02   1.0000000000E+01  1.019E-09  -1.
3000001    1    4    0    0    0  -1.4919520690E+01   1.5271419024E+01   1.9955806353E+01   2.9241110509E+01   1.0000000000E+00     0.000  -1.
3000022   2   4   0   0   0   -6.2241349944E+00   1.5784994817E-01   2.6945289720E+00   6.7887966103E+00   2.5000000000E-01   7.925953E+00   0.
3000001    1    5    0    0    0   1.3051185778E+01  -7.2589299442E+00  -8.5442010392E+01   8.6743084186E+01   1.0000000000E+00     0.000   1.
3000022   2   5   0   0   0   8.0924699063E+00   -8.1703390275E+00   -3.2296228085E+01   3.4283397695E+01   2.5000000000E-01   5.157929E-01   0.
13    1    7    0    0    0  -2.6759813454E+00   7.7818033864E-02   1.0883230614E+00   2.8917821310E+00   1.0500000000E-01     0.000   1.
-13    1    7    0    0    0  -3.5481536490E+00   8.0031914306E-02   1.6062059106E+00   3.8970144793E+00   1.0500000000E-01     0.000  -1.
13    1    9    0    0    0   2.9538407658E+00  -2.9352653568E+00  -1.1553294649E+01   1.2281311014E+01   1.0500000000E-01     0.000   1.
-13    1    9    0    0    0   5.1386291405E+00  -5.2350736707E+00  -2.0742933436E+01   2.2002086681E+01   1.0500000000E-01     0.000  -1.
</event>
<event>
 13   1  9.2978750E-05  1.2500000E+02  7.5467720E-03  1.2380620E-01
   21   -1    0    0  502  501   0.0000000000E+00   0.0000000000E+00   2.4904219175E+01   2.4904219175E+01   0.0000000000E+00     0.000  -1.
   21   -1    0    0  501  502   0.0000000000E+00   0.0000000000E+00  -1.5685093247E+02   1.5685093247E+02   0.0000000000E+00     0.000  -1.
   25    2    1    2    0    0   0.0000000000E+00   0.0000000000E+00  -1.3194671329E+02   1.8175515164E+02   1.2500000000E+02  8.428E-08  -1.
3000002    2    3    0    0    0  -5.5606914770E+01  -2.1850859560E+01  -4.3604693321E+01   7.4638852572E+01   1.0000000000E+01  5.218E-10   1.
3000002    2    3    0    0    0   5.5606914770E+01   2.1850859560E+01  -8.8342019969E+01   1.0711629907E+02   1.0000000000E+01  5.866E-10   1.
3000001    1    4    0    0    0  -3.6351646201E+01  -1.2947419303E+01  -2.2335918661E+01   4.4597882356E+01   1.0000000000E+00     0.000   1.
3000022   2   4   0   0   0   -1.9255268569E+01   -8.9034402563E+00   -2.1268774660E+01   3.0040970217E+01   2.5000000000E-01   2.826351E-01   0.
3000001    1    5    0    0    0   2.0428936607E+01   9.8954905616E+00  -2.5878755235E+01   3.4437946467E+01   1.0000000000E+00     0.000   1.
3000022   2   5   0   0   0   3.5177978163E+01   1.1955368998E+01   -6.2463264734E+01   7.2678352601E+01   2.5000000000E-01   1.141586E+00   0.
13    1    7    0    0    0  -9.5511786102E+00  -4.4820803034E+00  -1.0531886061E+01   1.4907907489E+01   1.0500000000E-01     0.000   1.
-13    1    7    0    0    0  -9.7040899584E+00  -4.4213599528E+00  -1.0736888599E+01   1.5133062728E+01   1.0500000000E-01     0.000  -1.
13    1    9    0    0    0   1.3844623701E+01   4.7606128876E+00  -2.4679367962E+01   2.8695283035E+01   1.0500000000E-01     0.000   1.
-13    1    9    0    0    0   2.1333354462E+01   7.1947561105E+00  -3.7783896772E+01   4.3983069565E+01   1.0500000000E-01     0.000  -1.
</event>
<event>
 13   1  9.2978750E-05  1.2500000E+02  7.5467720E-03  1.2380620E-01
   21   -1    0    0  502  501   0.0000000000E+00   0.0000000000E+00   1.1788554064E+02   1.1788554064E+02   0.0000000000E+00     0.000   1.
   21   -1    0    0  501  502   0.0000000000E+00   0.0000000000E+00  -3.3135955256E+01   3.3135955256E+01   0.0000000000E+00     0.000   1.
   25    2    1    2    0    0   0.0000000000E+00   0.0000000000E+00   8.4749585385E+01   1.5102149590E+02   1.2500000000E+02  1.911E-08  -1.
3000002    2    3    0    0    0  -2.0146238868E+01  -1.1821801224E+01   1.1136367678E+02   1.1422562948E+02   1.0000000000E+01  4.432E-11  -1.
3000002    2    3    0    0    0   2.0146238868E+01   1.1821801224E+01  -2.6614091394E+01   3.6795866418E+01   1.0000000000E+01  4.037E-10  -1.
3000001    1    4    0    0    0  -2.6967074344E+00  -3.1199156171E+00   8.1768056683E+00   9.2122882815E+00   1.0000000000E+00     0.000  -1.
3000022   2   4   0   0   0   -1.7449531433E+01   -8.7018856073E+00   1.0318687111E+02   1.0501334120E+02   2.5000000000E-01   8.856955E-01   0.
3000001    1    5    0    0    0   1.3784985693E+01   6.0388229472E+00  -2.2915237901E+01   2.7433580540E+01   1.0000000000E+00     0.000  -1.
3000022   2   5   0   0   0   6.3612531744E+00   5.7829782772E+00   -3.6988534929E+00   9.3622858782E+00   2.5000000000E-01   3.266869E+00   0.
13    1    7    0    0    0  -1.0939997590E+01  -5.4458294632E+00   6.4348279306E+01   6.5498493726E+01   1.0500000000E-01     0.000  -1.
-13    1    7    0    0    0  -6.5095338431E+00  -3.2560561441E+00   3.8838591805E+01   3.9514847474E+01   1.0500000000E-01     0.000   1.
13    1    9    0    0    0   4.5130905774E+00   4.1376864427E+00  -2.5971599361E+00   6.6516689929E+00   1.0500000000E-01     0.000  -1.
-13    1    9    0    0    0   1.8481625970E+00   1.6452918345E+00  -1.1016935569E+00   2.7106168853E+00   1.0500000000E-01     0.000   1.
</event>
<event>
 13   1  9.2978750E-05  1.2500000E+02  7.5467720E-03  1.2380620E-01
   21   -1    0    0  502  501   0.0000000000E+00   0.0000000000E+00   4.6605789884E+01   4.6605789884E+01   0.0000000000E+00     0.000   1.
   21   -1    0    0  501  502   0.0000000000E+00   0.0000000000E+00  -8.3814693619E+01   8.3814693619E+01   0.0000000000E+00     0.000   1.
   25    2    1    2    0    0   0.0000000000E+00   0.0000000000E+00  -3.7208903735E+01   1.3042048350E+02   1.2500000000E+02  5.616E-09  -1.
3000002    2    3    0    0    0   5.5601334383E+00  -3.8007611430E+01   3.1766972840E+01   5.0839297535E+01   1.0000000000E+01  2.806E-10  -1.
3000002    2    3    0    0    0  -5.5601334383E+00   3.8007611430E+01  -6.8975876575E+01   7.9581185965E+01   1.0000000000E+01  4.949E-10  -1.
3000001    1    4    0    0    0   3.1623028513E+00  -3.4725571457E+01   3.1057105946E+01   4.6705559648E+01   1.0000000000E+00     0.000  -1.
3000022   2   4   0   0   0   2.3978305870E+00   -3.2820399730E+00   7.0986689367E-01   4.1337378866E+00   2.5000000000E-01   5.099923E+00   0.
3000001    1    5    0    0    0  -2.7830975154E+00   2.0245447273E+00  -5.5751187075E+00   6.6276965634E+00   1.0000000000E+00     0.000  -1.
3000022   2   5   0   0   0   -2.7770359228E+00   3.5983066702E+01   -6.3400757867E+01   7.2953489402E+01   2.5000000000E-01   1.097161E+01   0.
13    1    7    0    0    0   7.3222880729E-01  -1.0623321723E+00   1.8962951111E-01   1.3083168661E+00   1.0500000000E-01     0.000   1.
-13    1    7    0    0    0   1.6656017797E+00  -2.2197078007E+00   5.2023738257E-01   2.8254210205E+00   1.0500000000E-01     0.000  -1.
13    1    9    0    0    0  -1.8131542654E+00   2.3795633759E+01  -4.2023086942E+01   4.8326706648E+01   1.0500000000E-01     0.000  -1.
-13    1    9    0    0    0  -9.6388165742E-01   1.2187432943E+01  -2.1377670926E+01   2.4626782754E+01   1.0500000000E-01     0.000   1.
</event>
<event>
 13   1  9.2978750E-05  1.2500000E+02  7.5467720E-03  1.2380620E-01
   21   -1    0    0  502  501   0.0000000000E+00   0.0000000000E+00   1.0761724283E+01   1.0761724283E+01   0.0000000000E+00     0.000   1.
   21   -1    0    0  501  502   0.0000000000E+00   0.0000000000E+00  -3.6297621992E+02   3.6297621992E+02   0.0000000000E+00     0.000   1.
   25    2    1    2    0    0   0.0000000000E+00   0.0000000000E+00  -3.5221449563E+02   3.7373794420E+02   1.2500000000E+02  6.745E-08  -1.
3000002    2    3    0    0    0   3.7647240665E+01  -7.2116375792E-01  -3.2222806487E+02   3.2457473807E+02   1.0000000000E+01  5.776E-11   1.
3000002    2    3    0    0    0  -3.7647240665E+01   7.2116375792E-01  -2.9986430763E+01   4.9163206127E+01   1.0000000000E+01  4.395E-10   1.
3000001    1    4    0    0    0   3.0923628350E+01  -3.3617126591E+00  -2.3579231825E+02   2.3783731677E+02   1.0000000000E+00     0.000   1.
3000022   2   4   0   0   0   6.7236123143E+00   2.6405489012E+00   -8.6435746621E+01   8.6737421307E+01   2.5000000000E-01   2.318844E-01   0.
3000001    1    5    0    0    0  -1.4619111891E+01   3.9970303766E+00  -1.5803438223E+01   2.1919017861E+01   1.0000000000E+00     0.000   1.
3000022   2   5   0   0   0   -2.3028128773E+01   -3.2758666187E+00   -1.4182992539E+01   2.7244188266E+01   2.5000000000E-01   5.553373E+00   0.
13    1    7    0    0    0   4.9776789295E+00   1.9330453006E+00  -6.3573051681E+01   6.3797005233E+01   1.0500000000E-01     0.000  -1.
-13    1    7    0    0    0   1.7459333848E+00   7.0750360058E-01  -2.2862694940E+01   2.2940416074E+01   1.0500000000E-01     0.000   1.
13    1    9    0    0    0  -7.7853096644E+00  -1.1207043896E+00  -4.7344713535E+00   9.1811365798E+00   1.0500000000E-01     0.000  -1.
-13    1    9    0    0    0  -1.5242819109E+01  -2.1551622290E+00  -9.4485211859E+00   1.8063051686E+01   1.0500000000E-01     0.000   1.
</event>
<event>
 13   1  9.2978750E-05  1.2500000E+02  7.5467720E-03  1.2380620E-01
   21   -1    0    0  502  501   0.0000000000E+00   0.0000000000E+00   1.4282558135E+02   1.4282558135E+02   0.0000000000E+00     0.000   1.
   21   -1    0    0  501  502   0.0000000000E+00   0.0000000000E+00  -2.7349792405E+01   2.7349792405E+01   0.0000000000E+00     0.000   1.
   25    2    1    2    0    0   0.0000000000E+00   0.0000000000E+00   1.1547578894E+02   1.7017537375E+02   1.2500000000E+02  5.789E-08  -1.
3000002    2    3    0    0    0   4.4306813015E+01  -2.2139043203E+01   7.6608531624E+00   5.1106942627E+01   1.0000000000E+01  1.372E-10  -1.
3000002    2    3    0    0    0  -4.4306813015E+01   2.2139043203E+01   1.0781493578E+02   1.1906843112E+02   1.0000000000E+01  1.663E-11  -1.
3000001    1    4    0    0    0   2.9401527179E+01  -1.0281673711E+01   1.9642283040E+00   3.1225323178E+01   1.0000000000E+00     0.000  -1.
3000022   2   4   0   0   0   1.4905285836E+01   -1.1857369492E+01   5.6966248585E+00   1.9881619448E+01   2.5000000000E-01   2.449689E+00   0.
3000001    1    5    0    0    0  -1.8313572436E+00   3.6438357990E+00   8.6465505217E+00   9.6121924975E+00   1.0000000000E+00     0.000   1.
3000022   2   5   0   0   0   -4.2475455771E+01   1.8495207404E+01   9.9168385256E+01   1.0945623863E+02   2.5000000000E-01   1.869444E+00   0.
13    1    7    0    0    0   1.0546968967E+01  -8.3707845531E+00   3.9841762858E+00   1.4042552265E+01   1.0500000000E-01     0.000  -1.
-13    1    7    0    0    0   4.3583168688E+00  -3.4865849386E+00   1.7124485726E+00   5.8390671837E+00   1.0500000000E-01     0.000   1.
13    1    9    0    0    0  -2.6548488664E+01   1.1496452826E+01   6.1892930353E+01   6.8320835260E+01   1.0500000000E-01     0.000   1.
-13    1    9    0    0    0  -1.5926967107E+01   6.9987545776E+00   3.7275454903E+01   4.1135403366E+01   1.0500000000E-01     0.000  -1.
</event>
<event>
 13   1  9.2978750E-05  1.2500000E+02  7.5467720E-03  1.2380620E-01
   21   -1    0    0  502  501   0.0000000000E+00   0.0000000000E+00   7.2037115284E+02   7.2037115284E+02   0.0000000000E+00     0.000   1.
   21   -1    0    0  501  502   0.0000000000E+00   0.0000000000E+00  -5.4225519507E+00   5.4225519507E+00   0.0000000000E+00     0.000   1.
   25    2    1    2    0    0   0.0000000000E+00   0.0000000000E+00   7.1494860088E+02   7.2579370479E+02   1.2500000000E+02  4.685E-08  -1.
3000002    2    3    0    0    0   2.6717865077E+01   4.4685564006E+01   5.4966412767E+02   5.5221490128E+02   1.0000000000E+01  7.343E-10  -1.
3000002    2    3    0    0    0  -2.6717865077E+01  -4.4685564006E+01   1.6528447321E+02   1.7357880351E+02   1.0000000000E+01  4.019E-10  -1.
3000001    1    4    0    0    0   2.0234370631E+01   3.2551725734E+01   4.4531033741E+02   4.4695787408E+02   1.0000000000E+00     0.000  -1.
3000022   2   4   0   0   0   6.4834944461E+00   1.2133838272E+01   1.0435379027E+02   1.0525702720E+02   2.5000000000E-01   2.652637E+00   0.
3000001    1    5    0    0    0  -4.1051784217E+00  -1.5645300119E+01   5.1382877587E+01   5.3877899132E+01   1.0000000000E+00     0.000  -1.
3000022   2   5   0   0   0   -2.2612686655E+01   -2.9040263887E+01   1.1390159562E+02   1.1970090438E+02   2.5000000000E-01   1.150507E+01   0.
13    1    7    0    0    0   4.1935523996E+00   7.7736138966E+00   6.7343324767E+01   6.7920169098E+01   1.0500000000E-01     0.000   1.
-13    1    7    0    0    0   2.2899420465E+00   4.3602243754E+00   3.7010465502E+01   3.7336858101E+01   1.0500000000E-01     0.000  -1.
13    1    9    0    0    0  -9.6400740418E+00  -1.2454563871E+01   4.8587389676E+01   5.1076341385E+01   1.0500000000E-01     0.000   1.
-13    1    9    0    0    0  -1.2972612613E+01  -1.6585700016E+01   6.5314205942E+01   6.8624562992E+01   1.0500000000E-01     0.000  -1.
</event>
<event>
 13   1  9.2978750E-05  1.2500000E+02  7.5467720E-03  1.2380620E-01
   21   -1    0    0  502  501   0.0000000000E+00   0.0000000000E+00   5.2375983443E+01   5.2375983443E+01   0.0000000000E+00     0.000  -1.
   21   -1    0    0  501  502   0.0000000000E+00   0.0000000000E+00  -7.4580938499E+01   7.4580938499E+01   0.0000000000E+00     0.000  -1.
   25    2    1    2    0    0   0.0000000000E+00   0.0000000000E+00  -2.2204955056E+01   1.2695692194E+02   1.2500000000E+02  4.937E-08  -1.
3000002    2    3    0    0    0  -1.1279335219E+00   3.7685191931E+01   3.8496500034E+01   5.4803525797E+01   1.0000000000E+01  1.535E-09   1.
3000002    2    3    0    0    0   1.1279335219E+00  -3.7685191931E+01  -6.0701455090E+01   7.2153396143E+01   1.0000000000E+01  2.044E-10   1.
3000001    1    4    0    0    0   3.2503052745E+00   2.8127015642E+01   2.5814592599E+01   3.8328666613E+01   1.0000000000E+00     0.000   1.
3000022   2   4   0   0   0   -4.3782387964E+00   9.5581762891E+00   1.2681907435E+01   1.6474859184E+01   2.5000000000E-01   3.939040E+00   0.
3000001    1    5    0    0    0   4.0900230770E+00  -3.0982916732E+01  -5.2881220484E+01   6.1433646301E+01   1.0000000000E+00     0.000  -1.
3000022   2   5   0   0   0   -2.9620895551E+00   -6.7022751990E+00   -7.8202346068E+00   1.0719749842E+01   2.5000000000E-01   5.070798E+00   0.
13    1    7    0    0    0  -2.7451118452E+00   5.8606087215E+00   7.8479126353E+00   1.0172665893E+01   1.0500000000E-01     0.000   1.
-13    1    7    0    0    0  -1.6331269512E+00   3.6975675676E+00   4.8339947998E+00   6.3021932913E+00   1.0500000000E-01     0.000  -1.
13    1    9    0    0    0  -1.9143907532E+00  -4.2546685858E+00  -4.9052078087E+00   6.7704641922E+00   1.0500000000E-01     0.000   1.
-13    1    9    0    0    0  -1.0476988019E+00  -2.4476066132E+00  -2.9150267981E+00   3.9492856501E+00   1.0500000000E-01     0.000  -1.
</event>
<event>
 13   1  9.2978750E-05  1.2500000E+02  7.5467720E-03  1.2380620E-01
   21   -1    0    0  502  501   0.0000000000E+00   0.0000000000E+00   1.8489606599E+02   1.8489606599E+02   0.0000000000E+00     0.000   1.
   21   -1    0    0  501  502   0.0000000000E+00   0.0000000000E+00  -2.1126733979E+01   2.1126733979E+01   0.0000000000E+00     0.000   1.
   25    2    1    2    0    0   0.0000000000E+00   0.0000000000E+00   1.6376933202E+02   2.0602279997E+02   1.2500000000E+02  4.363E-09  -1.
3000002    2    3    0    0    0   5.2022377255E+01  -3.3015144417E+01   7.6692890624E+01   9.8884412161E+01   1.0000000000E+01  1.812E-10   1.
3000002    2    3    0    0    0  -5.2022377255E+01   3.3015144417E+01   8.7076441396E+01   1.0713838781E+02   1.0000000000E+01  6.315E-10   1.
3000001    1    4    0    0    0   1.7629120285E+01  -1.3329713664E+01   3.4629106883E+01   4.1093091778E+01   1.0000000000E+00     0.000   1.
3000022   2   4   0   0   0   3.4393256971E+01   -1.9685430752E+01   4.2063783740E+01   5.7791320382E+01   2.5000000000E-01   1.053507E+01   0.
3000001    1    5    0    0    0  -1.9160281570E+01   1.3100203598E+01   2.4975429993E+01   3.4110171906E+01   1.0000000000E+00     0.000   1.
3000022   2   5   0   0   0   -3.2862095685E+01   1.9914940819E+01   6.2101011404E+01   7.3028215903E+01   2.5000000000E-01   6.780909E-01   0.
13    1    7    0    0    0   1.6551788689E+01  -9.5020852790E+00   2.0166396438E+01   2.7765912622E+01   1.0500000000E-01     0.000  -1.
-13    1    7    0    0    0   1.7841468282E+01  -1.0183345473E+01   2.1897387302E+01   3.0025407760E+01   1.0500000000E-01     0.000   1.
13    1    9    0    0    0  -1.7243025558E+01   1.0387022150E+01   3.2610996319E+01   3.8323625421E+01   1.0500000000E-01     0.000   1.
-13    1    9    0    0    0  -1.5619070127E+01   9.5279186685E+00   2.9490015085E+01   3.4704590482E+01   1.0500000000E-01     0.000  -1.
</event>
<event>
 13   1  9.2978750E-05  1.2500000E+02  7.5467720E-03  1.2380620E-01
   21   -1    0    0  502  501   0.0000000000E+00   0.0000000000E+00   6.9811403558E+00   6.9811403558E+00   0.0000000000E+00     0.000  -1.
   21   -1    0    0  501  502   0.0000000000E+00   0.0000000000E+00  -5.5954325525E+02   5.5954325525E+02   0.0000000000E+00     0.000  -1.
   25    2    1    2    0    0   0.0000000000E+00   0.0000000000E+00  -5.5256211489E+02   5.6652439560E+02   1.2500000000E+02  3.500E-08  -1.
3000002    2    3    0    0    0  -4.6476102124E+01   1.2457178716E+01  -4.5128722003E+02   4.5395524486E+02   1.0000000000E+01  5.462E-10  -1.
3000002    2    3    0    0    0   4.6476102124E+01  -1.2457178716E+01  -1.0127489486E+02   1.1256915074E+02   1.0000000000E+01  3.153E-10  -1.
3000001    1    4    0    0    0  -3.8747126815E+01   1.0589939731E+01  -3.3602175208E+02   3.3841557962E+02   1.0000000000E+00     0.000  -1.
3000022   2   4   0   0   0   -7.7289753094E+00   1.8672389844E+00   -1.1526546795E+02   1.1553966524E+02   2.5000000000E-01   1.847010E+00   0.
3000001    1    5    0    0    0   1.8657842567E-01  -9.8338330911E-01  -3.7475247749E+00   4.0057204321E+00   1.0000000000E+00     0.000   1.
3000022   2   5   0   0   0   4.6289523699E+01   -1.1473795407E+01   -9.7527370085E+01   1.0856343031E+02   2.5000000000E-01   3.498715E-01   0.
13    1    7    0    0    0  -4.3718198763E+00   9.9382363304E-01  -6.4602932118E+01   6.4758399900E+01   1.0500000000E-01     0.000   1.
-13    1    7    0    0    0  -3.3571554331E+00   8.7341535141E-01  -5.0662535837E+01   5.0781265339E+01   1.0500000000E-01     0.000  -1.
13    1    9    0    0    0   1.5425301630E+01  -3.8347930403E+00  -3.2386365934E+01   3.6076769415E+01   1.0500000000E-01     0.000  -1.
-13    1    9    0    0    0   3.0864222068E+01  -7.6390023665E+00  -6.5141004151E+01   7.2486660896E+01   1.0500000000E-01     0.000   1.
</event>
<event>
 13   1  9.2978750E-05  1.2500000E+02  7.5467720E-03  1.2380620E-01
   21   -1    0    0  502  501   0.0000000000E+00   0.0000000000E+00   1.2470472132E+02   1.2470472132E+02   0.0000000000E+00     0.000   1.
   21   -1    0    0  501  502   0.0000000000E+00   0.0000000000E+00  -3.1323994462E+01   3.1323994462E+01   0.0000000000E+00     0.000   1.
   25    2    1    2    0    0   0.0000000000E+00   0.0000000000E+00   9.3380726855E+01   1.5602871578E+02   1.2500000000E+02  3.662E-08  -1.
3000002    2    3    0    0    0   4.7244202729E+01   2.6463551786E+01   8.3590612749E+01   1.0009857544E+02   1.0000000000E+01  1.227E-09  -1.
3000002    2    3    0    0    0  -4.7244202729E+01  -2.6463551786E+01   9.7901141061E+00   5.5930140344E+01   1.0000000000E+01  8.632E-11  -1.
3000001    1    4    0    0    0   1.8235745094E+01   4.9883794585E+00   2.6943791882E+01   3.2930141963E+01   1.0000000000E+00     0.000   1.
3000022   2   4   0   0   0   2.9008457635E+01   2.1475172327E+01   5.6646820867E+01   6.7168433473E+01   2.5000000000E-01   3.623336E+00   0.
3000001    1    5    0    0    0  -3.0070529273E+01  -1.3532658933E+01   9.8554213579E+00   3.4431074899E+01   1.0000000000E+00     0.000  -1.
3000022   2   5   0   0   0   -1.7173673456E+01   -1.2930892853E+01   -6.5307251834E-02   2.1499065445E+01   2.5000000000E-01   2.127313E+00   0.
13    1    7    0    0    0   1.0080511993E+01   7.4877704944E+00   1.9806308868E+01   2.3451744605E+01   1.0500000000E-01     0.000   1.
-13    1    7    0    0    0   1.8927945642E+01   1.3987401833E+01   3.6840511999E+01   4.3716688869E+01   1.0500000000E-01     0.000  -1.
13    1    9    0    0    0  -5.2618551249E+00  -3.9913588575E+00  -6.1584308148E-02   6.6055190948E+00   1.0500000000E-01     0.000   1.
-13    1    9    0    0    0  -1.1911818332E+01  -8.9395339956E+00  -3.7229436857E-03   1.4893546350E+01   1.0500000000E-01     0.000  -1.
</event>
<event>
 13   1  9.2978750E-05  1.2500000E+02  7.5467720E-03  1.2380620E-01
   21   -1    0    0  502  501   0.0000000000E+00   0.0000000000E+00   5.2869718411E+01   5.2869718411E+01   0.0000000000E+00     0.000  -1.
   21   -1    0    0  501  502   0.0000000000E+00   0.0000000000E+00  -7.3884448743E+01   7.3884448743E+01   0.0000000000E+00     0.000  -1.
   25    2    1    2    0    0   0.0000000000E+00   0.0000000000E+00  -2.1014730332E+01   1.2675416715E+02   1.2500000000E+02  3.397E-08  -1.
3000002    2    3    0    0    0   2.7284645824E+01   4.9221203839E+01   1.5127253089E+01   5.9127088471E+01   1.0000000000E+01  3.787E-09  -1.
3000002    2    3    0    0    0  -2.7284645824E+01  -4.9221203839E+01  -3.6141983421E+01   6.7627078679E+01   1.0000000000E+01  2.207E-09  -1.
3000001    1    4    0    0    0   8.5857475576E+00   2.4756654551E+01   4.8719310219E+00   2.6671008934E+01   1.0000000000E+00     0.000   1.
3000022   2   4   0   0   0   1.8698898266E+01   2.4464549288E+01   1.0255322067E+01   3.2456079537E+01   2.5000000000E-01   1.066386E+00   0.
3000001    1    5    0    0    0  -2.2347744750E+01  -3.4647267375E+01  -3.0259595894E+01   5.1151715276E+01   1.0000000000E+00     0.000  -1.
3000022   2   5   0   0   0   -4.9369010737E+00   -1.4573936464E+01   -5.8823875270E+00   1.6475363403E+01   2.5000000000E-01   4.744145E+00   0.
13    1    7    0    0    0   7.8325601290E+00   1.0185226577E+01   4.2241477011E+00   1.3525615971E+01   1.0500000000E-01     0.000   1.
-13    1    7    0    0    0   1.0866338137E+01   1.4279322711E+01   6.0311743656E+00   1.8930463566E+01   1.0500000000E-01     0.000  -1.
13    1    9    0    0    0  -2.0415085771E+00  -5.9032524430E+00  -2.3346468032E+00   6.6691639185E+00   1.0500000000E-01     0.000  -1.
-13    1    9    0    0    0  -2.8953924966E+00  -8.6706840206E+00  -3.5477407238E+00   9.8061994849E+00   1.0500000000E-01     0.000   1.
</event>
<event>
 13   1  9.2978750E-05  1.2500000E+02  7.5467720E-03  1.2380620E-01
   21   -1    0    0  502  501   0.0000000000E+00   0.0000000000E+00   2.2574405640E+01   2.2574405640E+01   0.0000000000E+00     0.000  -1.
   21   -1    0    0  501  502   0.0000000000E+00   0.0000000000E+00  -1.7303888582E+02   1.7303888582E+02   0.0000000000E+00     0.000  -1.
   25    2    1    2    0    0   0.0000000000E+00   0.0000000000E+00  -1.5046448018E+02   1.9561329146E+02   1.2500000000E+02  8.632E-09  -1.
3000002    2    3    0    0    0   2.0316393755E+01  -1.5903311288E+01   1.2466468359E+01   3.0349365702E+01   1.0000000000E+01  3.247E-10   1.
3000002    2    3    0    0    0  -2.0316393755E+01   1.5903311288E+01  -1.6293094854E+02   1.6526392576E+02   1.0000000000E+01  4.155E-10   1.
3000001    1    4    0    0    0   1.0593820240E+01  -1.3424176279E+01   1.0588594739E+01   2.0138417877E+01   1.0000000000E+00     0.000  -1.
3000022   2   4   0   0   0   9.7225735144E+00   -2.4791350098E+00   1.8778736201E+00   1.0210947824E+01   2.5000000000E-01   1.486202E+00   0.
3000001    1    5    0    0    0  -1.6033716806E+01   1.6370867417E+01  -1.2486391977E+02   1.2695307729E+02   1.0000000000E+00     0.000   1.
3000022   2   5   0   0   0   -4.2826769493E+00   -4.6755612821E-01   -3.8067028772E+01   3.8310848465E+01   2.5000000000E-01   9.006988E+00   0.
13    1    7    0    0    0   4.6945778856E+00  -1.1441180052E+00   8.5941926043E-01   4.9089402114E+00   1.0500000000E-01     0.000   1.
-13    1    7    0    0    0   5.0279956288E+00  -1.3350170046E+00   1.0184543596E+00   5.3020076130E+00   1.0500000000E-01     0.000  -1.
13    1    9    0    0    0  -2.3557348367E+00  -2.7744124016E-01  -2.0388220208E+01   2.0526008100E+01   1.0500000000E-01     0.000  -1.
-13    1    9    0    0    0  -1.9269421126E+00  -1.9011488804E-01  -1.7678808564E+01   1.7784840366E+01   1.0500000000E-01     0.000   1.
</event>
<event>
 13   1  9.2978750E-05  1.2500000E+02  7.5467720E-03  1.2380620E-01
   21   -1    0    0  502  501   0.0000000000E+00   0.0000000000E+00   7.5118304454E+02   7.5118304454E+02   0.0000000000E+00     0.000  -1.
   21   -1    0    0  501  502   0.0000000000E+00   0.0000000000E+00  -5.2001306851E+00   5.2001306851E+00   0.0000000000E+00     0.000  -1.
   25    2    1    2    0    0   0.0000000000E+00   0.0000000000E+00   7.4598291385E+02   7.5638317522E+02   1.2500000000E+02  8.453E-08  -1.
3000002    2    3    0    0    0  -3.0289617750E+01   1.7704008725E+01   6.8007078250E+02   6.8104857541E+02   1.0000000000E+01  1.675E-09   1.
3000002    2    3    0    0    0   3.0289617750E+01  -1.7704008725E+01   6.5912131354E+01   7.5334599806E+01   1.0000000000E+01  1.510E-09   1.
3000001    1    4    0    0    0  -1.3980228317E+01   1.2468678381E+01   2.9397712612E+02   2.9457505904E+02   1.0000000000E+00     0.000   1.
3000022   2   4   0   0   0   -1.6309389433E+01   5.2353303434E+00   3.8609365637E+02   3.8647351638E+02   2.5000000000E-01   8.112044E+00   0.
3000001    1    5    0    0    0   3.7665921752E+00  -4.3006832571E+00   1.8400694936E+01   1.9294265138E+01   1.0000000000E+00     0.000   1.
3000022   2   5   0   0   0   2.6523025574E+01   -1.3403325468E+01   4.7511436417E+01   5.6040334668E+01   2.5000000000E-01   7.204401E+00   0.
13    1    7    0    0    0  -6.6021502989E+00   2.0637107915E+00   1.5670649085E+02   1.5685911702E+02   1.0500000000E-01     0.000   1.
-13    1    7    0    0    0  -9.7072391341E+00   3.1716195519E+00   2.2938716552E+02   2.2961439936E+02   1.0500000000E-01     0.000  -1.
13    1    9    0    0    0   1.6834760672E+01  -8.5663764509E+00   3.0149511200E+01   3.5578027249E+01   1.0500000000E-01     0.000   1.
-13    1    9    0    0    0   9.6882649025E+00  -4.8369490166E+00   1.7361925218E+01   2.0462307418E+01   1.0500000000E-01     0.000  -1.
</event>
<event>
 13   1  9.2978750E-05  1.2500000E+02  7.5467720E-03  1.2380620E-01
   21   -1    0    0  502  501   0.0000000000E+00   0.0000000000E+00   1.6748091334E+02   1.6748091334E+02   0.0000000000E+00     0.000  -1.
   21   -1    0    0  501  502   0.0000000000E+00   0.0000000000E+00  -2.3323553247E+01   2.3323553247E+01   0.0000000000E+00     0.000  -1.
   25    2    1    2    0    0   0.0000000000E+00   0.0000000000E+00   1.4415736009E+02   1.9080446658E+02   1.2500000000E+02  1.031E-08  -1.
3000002    2    3    0    0    0  -3.4735885254E+01  -3.0368199878E+01   9.5611065188E+00   4.8168704011E+01   1.0000000000E+01  2.720E-10   1.
3000002    2    3    0    0    0   3.4735885254E+01   3.0368199878E+01   1.3459625357E+02   1.4263576257E+02   1.0000000000E+01  2.261E-10   1.
3000001    1    4    0    0    0  -9.3524970818E+00  -9.2349791605E+00  -1.6574094396E+00   1.3285369690E+01   1.0000000000E+00     0.000   1.
3000022   2   4   0   0   0   -2.5383388172E+01   -2.1133220718E+01   1.1218515958E+01   3.4883334321E+01   2.5000000000E-01   6.549548E-01   0.
3000001    1    5    0    0    0   2.1615622031E+01   1.8459589624E+01   9.6789188519E+01   1.0088180499E+02   1.0000000000E+00     0.000   1.
3000022   2   5   0   0   0   1.3120263223E+01   1.1908610254E+01   3.7807065053E+01   4.1753957574E+01   2.5000000000E-01   8.536583E-01   0.
13    1    7    0    0    0  -8.0608511327E+00  -6.7641432129E+00   3.6056433878E+00   1.1123967081E+01   1.0500000000E-01     0.000  -1.
-13    1    7    0    0    0  -1.7322537040E+01  -1.4369077505E+01   7.6128725706E+00   2.3759367239E+01   1.0500000000E-01     0.000   1.
13    1    9    0    0    0   9.9753716437E+00   9.0402020612E+00   2.8762042429E+01   3.1756879608E+01   1.0500000000E-01     0.000   1.
-13    1    9    0    0    0   3.1448915795E+00   2.8684081933E+00   9.0450226239E+00   9.9970779669E+00   1.0500000000E-01     0.000  -1.
</event>
<event>
 13   1  9.2978750E-05  1.2500000E+02  7.5467720E-03  1.2380620E-01
   21   -1    0    0  502  501   0.0000000000E+00   0.0000000000E+00   3.8533354037E+01   3.8533354037E+01   0.0000000000E+00     0.000  -1.
   21   -1    0    0  501  502   0.0000000000E+00   0.0000000000E+00  -1.0137321543E+02   1.0137321543E+02   0.0000000000E+00     0.000  -1.
   25    2    1    2    0    0   0.0000000000E+00   0.0000000000E+00  -6.2839861392E+01   1.3990656947E+02   1.2500000000E+02  2.467E-09  -1.
3000002    2    3    0    0    0  -5.1338407598E+01   1.6003485874E+00  -6.9672452723E+01   8.7134630766E+01   1.0000000000E+01  4.750E-10   1.
3000002    2    3    0    0    0   5.1338407598E+01  -1.6003485874E+00   6.8325913311E+00   5.2771938704E+01   1.0000000000E+01  8.337E-10   1.
3000001    1    4    0    0    0  -2.6756745750E+01  -1.3649528639E+00  -4.3555998240E+01   5.1145982463E+01   1.0000000000E+00     0.000   1.
3000022   2   4   0   0   0   -2.4581661848E+01   2.9653014513E+00   -2.6116454483E+01   3.5988648303E+01   2.5000000000E-01   9.143660E-01   0.
3000001    1    5    0    0    0   2.8807859121E+01  -5.0475307574E+00   1.1808673225E+00   2.9287621302E+01   1.0000000000E+00     0.000   1.
3000022   2   5   0   0   0   2.2530548477E+01   3.4471821701E+00   5.6517240085E+00   2.3484317402E+01   2.5000000000E-01   3.717998E+00   0.
13    1    7    0    0    0  -1.7472321696E+01   2.1364341643E+00  -1.8612393363E+01   2.5617934891E+01   1.0500000000E-01     0.000  -1.
-13    1    7    0    0    0  -7.1093401513E+00   8.2886728691E-01  -7.5040611202E+00   1.0370713411E+01   1.0500000000E-01     0.000   1.
13    1    9    0    0    0   9.2884602747E+00   1.4150795457E+00   2.2639861872E+00   9.6651230127E+00   1.0500000000E-01     0.000   1.
-13    1    9    0    0    0   1.3242088202E+01   2.0321026244E+00   3.3877378214E+00   1.3819194390E+01   1.0500000000E-01     0.000  -1.
</event>
<event>
 13   1  9.2978750E-05  1.2500000E+02  7.5467720E-03  1.2380620E-01
   21   -1    0    0  502  501   0.0000000000E+00   0.0000000000E+00   4.8589782454E+00   4.8589782454E+00   0.0000000000E+00     0.000  -1.
   21   -1    0    0  501  502   0.0000000000E+00   0.0000000000E+00  -8.0392415909E+02   8.0392415909E+02   0.0000000000E+00     0.000  -1.
   25    2    1    2    0    0   0.0000000000E+00   0.0000000000E+00  -7.9906518085E+02   8.0878313734E+02   1.2500000000E+02  3.091E-08  -1.
3000002    2    3    0    0    0   1.6988145860E+01   5.7048054466E+01  -2.9456814145E+02   3.0068832298E+02   1.0000000000E+01  9.392E-10   1.
3000002    2    3    0    0    0  -1.6988145860E+01  -5.7048054466E+01  -5.0449703940E+02   5.0809481436E+02   1.0000000000E+01  2.231E-10   1.
3000001    1    4    0    0    0   1.4390750624E+01   3.9313629606E+01  -2.2387722648E+02   2.2776011002E+02   1.0000000000E+00     0.000   1.
3000022   2   4   0   0   0   2.5973952356E+00   1.7734424860E+01   -7.0690914964E+01   7.2928212960E+01   2.5000000000E-01   4.757262E+00   0.
3000001    1    5    0    0    0  -1.5561457630E+00  -8.0719944872E+00  -1.0194696780E+02   1.0228275968E+02   1.0000000000E+00     0.000   1.
3000022   2   5   0   0   0   -1.5432000097E+01   -4.8976059979E+01   -4.0255007160E+02   4.0581205468E+02   2.5000000000E-01   1.889806E+00   0.
13    1    7    0    0    0   1.7601724325E+00   1.2254961862E+01  -4.8964695915E+01   5.0505789453E+01   1.0500000000E-01     0.000   1.
-13    1    7    0    0    0   8.3722280313E-01   5.4794629973E+00  -2.1726219049E+01   2.2422423507E+01   1.0500000000E-01     0.000  -1.
13    1    9    0    0    0  -8.4265650549E+00  -2.6955818833E+01  -2.2125067449E+02   2.2304594852E+02   1.0500000000E-01     0.000  -1.
-13    1    9    0    0    0  -7.0054350418E+00  -2.2020241146E+01  -1.8129939711E+02   1.8276610616E+02   1.0500000000E-01     0.000   1.
</event>
<event>
 13   1  9.2978750E-05  1.2500000E+02  7.5467720E-03  1.2380620E-01
   21   -1    0    0  502  501   0.0000000000E+00   0.0000000000E+00   1.1271094284E+01   1.1271094284E+01   0.0000000000E+00     0.000  -1.
   21   -1    0    0  501  502   0.0000000000E+00   0.0000000000E+00  -3.4657238254E+02   3.4657238254E+02   0.0000000000E+00     0.000  -1.
   25    2    1    2    0    0   0.0000000000E+00   0.0000000000E+00  -3.3530128826E+02   3.5784347683E+02   1.2500000000E+02  4.204E-08  -1.
3000002    2    3    0    0    0  -3.2732896461E+01   4.4552998030E+01  -2.4604174672E+02   2.5237462882E+02   1.0000000000E+01  2.449E-10  -1.
3000002    2    3    0    0    0   3.2732896461E+01  -4.4552998030E+01  -8.9259541540E+01   1.0546884801E+02   1.0000000000E+01  5.892E-10  -1.
3000001    1    4    0    0    0   1.1990566429E-01   2.4186842716E+00  -1.5729019598E+01   1.5945735119E+01   1.0000000000E+00     0.000  -1.
3000022   2   4   0   0   0   -3.2852802125E+01   4.2134313758E+01   -2.3031272712E+02   2.3642889370E+02   2.5000000000E-01   3.166512E+00   0.
3000001    1    5    0    0    0   2.5646876956E+01  -4.0060185695E+01  -7.8910193875E+01   9.2143363694E+01   1.0000000000E+00     0.000   1.
3000022   2   5   0   0   0   7.0860195046E+00   -4.4928123348E+00   -1.0349347665E+01   1.3325484313E+01   2.5000000000E-01   2.000330E+00   0.
13    1    7    0    0    0  -1.9559798107E+01   2.4996123828E+01  -1.3667714492E+02   1.4031409365E+02   1.0500000000E-01     0.000   1.
-13    1    7    0    0    0  -1.3293004018E+01   1.7138189930E+01  -9.3635582199E+01   9.6114800050E+01   1.0500000000E-01     0.000  -1.
13    1    9    0    0    0   3.7603259334E+00  -2.3687984727E+00  -5.5866442660E+00   7.1395291500E+00   1.0500000000E-01     0.000   1.
-13    1    9    0    0    0   3.3256935712E+00  -2.1240138621E+00  -4.7627033991E+00   6.1859551634E+00   1.0500000000E-01     0.000  -1.
</event>
<event>
 13   1  9.2978750E-05  1.2500000E+02  7.5467720E-03  1.2380620E-01
   21   -1    0    0  502  501   0.0000000000E+00   0.0000000000E+00   2.4370217506E+02   2.4370217506E+02   0.0000000000E+00     0.000  -1.
   21   -1    0    0  501  502   0.0000000000E+00   0.0000000000E+00  -1.6028785951E+01   1.6028785951E+01   0.0000000000E+00     0.000  -1.
   25    2    1    2    0    0   0.0000000000E+00   0.0000000000E+00   2.2767338911E+02   2.5973096101E+02   1.2500000000E+02  2.230E-08  -1.
3000002    2    3    0    0    0   5.7544444782E+01  -2.1819738998E+01   1.0483074934E+02   1.2197110372E+02   1.0000000000E+01  1.614E-10  -1.
3000002    2    3    0    0    0  -5.7544444782E+01   2.1819738998E+01   1.2284263977E+02   1.3775985729E+02   1.0000000000E+01  4.055E-10  -1.
3000001    1    4    0    0    0   4.5889826805E+01  -2.0967254252E+01   8.8713489918E+01   1.0206167375E+02   1.0000000000E+00     0.000   1.
3000022   2   4   0   0   0   1.1654617977E+01   -8.5248474599E-01   1.6117259418E+01   1.9909429966E+01   2.5000000000E-01   8.603541E+00   0.
3000001    1    5    0    0    0  -1.3898627222E+01   9.2103715708E+00   2.8149346186E+01   3.2732071029E+01   1.0000000000E+00     0.000  -1.
3000022   2   5   0   0   0   -4.3645817560E+01   1.2609367427E+01   9.4693293587E+01   1.0502778627E+02   2.5000000000E-01   5.933767E+00   0.
13    1    7    0    0    0   4.1505689253E+00  -2.5727997348E-01   5.7944689174E+00   7.1330435596E+00   1.0500000000E-01     0.000  -1.
-13    1    7    0    0    0   7.5040490518E+00  -5.9520477251E-01   1.0322790501E+01   1.2776386407E+01   1.0500000000E-01     0.000   1.
13    1    9    0    0    0  -2.9816085686E+01   8.6309586307E+00   6.4588584149E+01   7.1660230532E+01   1.0500000000E-01     0.000  -1.
-13    1    9    0    0    0  -1.3829731874E+01   3.9784087963E+00   3.0104709439E+01   3.3367555734E+01   1.0500000000E-01     0.000   1.
</event>
<event>
 13   1  9.2978750E-05  1.2500000E+02  7.5467720E-03  1.2380620E-01
   21   -1    0    0  502  501   0.0000000000E+00   0.0000000000E+00   2.2014038331E+01   2.2014038331E+01   0.0000000000E+00     0.000   1.
   21   -1    0    0  501  502   0.0000000000E+00   0.0000000000E+00  -1.7744359037E+02   1.7744359037E+02   0.0000000000E+00     0.000   1.
   25    2    1    2    0    0   0.0000000000E+00   0.0000000000E+00  -1.5542955204E+02   1.9945762870E+02   1.2500000000E+02  1.160E-08  -1.
3000002    2    3    0    0    0   5.5168037283E+01   2.6175048572E+01  -9.1771498651E+01   1.1068267014E+02   1.0000000000E+01  1.409E-10   1.
3000002    2    3    0    0    0  -5.5168037283E+01  -2.6175048572E+01  -6.3658053389E+01   8.8774958556E+01   1.0000000000E+01  3.158E-10   1.
3000001    1    4    0    0    0   2.0812272201E+01   6.5523454062E+00  -2.6331230714E+01   3.4211366757E+01   1.0000000000E+00     0.000  -1.
3000022   2   4   0   0   0   3.4355765083E+01   1.9622703166E+01   -6.5440267937E+01   7.6471303387E+01   2.5000000000E-01   6.301591E+00   0.
3000001    1    5    0    0    0  -1.0813940124E+01  -7.6505791712E+00  -9.3203743215E+00   1.6227816864E+01   1.0000000000E+00     0.000  -1.
3000022   2   5   0   0   0   -4.4354097159E+01   -1.8524469401E+01   -5.4337679067E+01   7.2547141693E+01   2.5000000000E-01   9.428839E-01   0.
13    1    7    0    0    0   2.5917029260E+01   1.4775985186E+01  -4.9334195722E+01   5.7653239600E+01   1.0500000000E-01     0.000  -1.
-13    1    7    0    0    0   8.4387358227E+00   4.8467179793E+00  -1.6106072215E+01   1.8818063786E+01   1.0500000000E-01     0.000   1.
13    1    9    0    0    0  -1.3513440810E+01  -5.6545751176E+00  -1.6490605636E+01   2.2057615500E+01   1.0500000000E-01     0.000  -1.
-13    1    9    0    0    0  -3.0840656349E+01  -1.2869894283E+01  -3.7847073431E+01   5.0489526193E+01   1.0500000000E-01     0.000   1.
</event>
<event>
 13   1  9.2978750E-05  1.2500000E+02  7.5467720E-03  1.2380620E-01
   21   -1    0    0  502  501   0.0000000000E+00   0.0000000000E+00   5.2569973928E+02   5.2569973928E+02   0.0000000000E+00     0.000  -1.
   21   -1    0    0  501  502   0.0000000000E+00   0.0000000000E+00  -7.4305724506E+00   7.4305724506E+00   0.0000000000E+00     0.000  -1.
   25    2    1    2    0    0   0.0000000000E+00   0.0000000000E+00   5.1826916683E+02   5.3313031173E+02   1.2500000000E+02  4.406E-09  -1.
3000002    2    3    0    0    0  -3.1068148040E+01  -2.5846698875E+01   4.5795000175E+02   4.5983854315E+02   1.0000000000E+01  3.865E-10   1.
3000002    2    3    0    0    0   3.1068148040E+01   2.5846698875E+01   6.0319165083E+01   7.3291768581E+01   1.0000000000E+01  2.907E-10   1.
3000001    1    4    0    0    0  -3.0461902830E+01  -2.6406594535E+01   4.5437511842E+02   4.5616113819E+02   1.0000000000E+00     0.000   1.
3000022   2   4   0   0   0   -6.0624520993E-01   5.5989565984E-01   3.5748833283E+00   3.6774049567E+00   2.5000000000E-01   1.468800E+00   0.
3000001    1    5    0    0    0   6.2321021573E+00   1.0343576243E+00   7.3367299355E+00   9.7332727867E+00   1.0000000000E+00     0.000  -1.
3000022   2   5   0   0   0   2.4836045883E+01   2.4812341251E+01   5.2982435147E+01   6.3558495794E+01   2.5000000000E-01   2.096994E+00   0.
13    1    7    0    0    0  -3.2120647419E-01   2.7990882617E-01   1.5560652714E+00   1.6167518916E+00   1.0500000000E-01     0.000  -1.
-13    1    7    0    0    0  -2.8503873573E-01   2.7998683367E-01   2.0188180569E+00   2.0606530651E+00   1.0500000000E-01     0.000   1.
13    1    9    0    0    0   1.4655161147E+01   1.4685500111E+01   3.1209923948E+01   3.7476766665E+01   1.0500000000E-01     0.000  -1.
-13    1    9    0    0    0   1.0180884735E+01   1.0126841140E+01   2.1772511199E+01   2.6081729129E+01   1.0500000000E-01     0.000   1.
</event>
<event>
 13   1  9.2978750E-05  1.2500000E+02  7.5467720E-03  1.2380620E-01
   21   -1    0    0  502  501   0.0000000000E+00   0.0000000000E+00   5.7719882893E+01   5.7719882893E+01   0.0000000000E+00     0.000  -1.
   21   -1    0    0  501  502   0.0000000000E+00   0.0000000000E+00  -6.7675986232E+01   6.7675986232E+01   0.0000000000E+00     0.000  -1.
   25    2    1    2    0    0   0.0000000000E+00   0.0000000000E+00  -9.9561033391E+00   1.2539586913E+02   1.2500000000E+02  1.051E-08  -1.
3000002    2    3    0    0    0   5.6451727518E+01  -1.4151393347E+01  -2.5517035203E+01   6.4328676024E+01   1.0000000000E+01  3.369E-10  -1.
3000002    2    3    0    0    0  -5.6451727518E+01   1.4151393347E+01   1.5560931864E+01   6.1067193106E+01   1.0000000000E+01  8.300E-10  -1.
3000001    1    4    0    0    0   5.4913559736E+01  -1.2140000347E+01  -2.3060740504E+01   6.0792075174E+01   1.0000000000E+00     0.000  -1.
3000022   2   4   0   0   0   1.5381677819E+00   -2.0113930002E+00   -2.4562946988E+00   3.5366008502E+00   2.5000000000E-01   6.427664E+00   0.
3000001    1    5    0    0    0  -4.5346086510E+01   8.4471258543E+00   1.5193585163E+01   4.8574340213E+01   1.0000000000E+00     0.000  -1.
3000022   2   5   0   0   0   -1.1105641007E+01   5.7042674927E+00   3.6734670014E-01   1.2492852893E+01   2.5000000000E-01   2.539469E-01   0.
13    1    7    0    0    0   5.9353478008E-01  -6.8903858051E-01  -8.5109980050E-01   1.2499814283E+00   1.0500000000E-01     0.000   1.
-13    1    7    0    0    0   9.4463300178E-01  -1.3223544196E+00  -1.6051948983E+00   2.2866194219E+00   1.0500000000E-01     0.000  -1.
13    1    9    0    0    0  -7.0601092324E+00   3.5816077260E+00   1.8937089862E-01   7.9195923262E+00   1.0500000000E-01     0.000  -1.
-13    1    9    0    0    0  -4.0455317751E+00   2.1226597667E+00   1.7797580152E-01   4.5732605671E+00   1.0500000000E-01     0.000   1.
</event>
<event>
 13   1  9.2978750E-05  1.2500000E+02  7.5467720E-03  1.2380620E-01
   21   -1    0    0  502  501   0.0000000000E+00   0.0000000000E+00   1.1225554740E+02   1.1225554740E+02   0.0000000000E+00     0.000  -1.
   21   -1    0    0  501  502   0.0000000000E+00   0.0000000000E+00  -3.4797834855E+01   3.4797834855E+01   0.0000000000E+00     0.000  -1.
   25    2    1    2    0    0   0.0000000000E+00   0.0000000000E+00   7.7457712547E+01   1.4705338226E+02   1.2500000000E+02  6.014E-09  -1.
3000002    2    3    0    0    0  -2.2408644114E+01  -5.0973600965E+01   7.4749580769E+00   5.7064264865E+01   1.0000000000E+01  1.786E-09   1.
3000002    2    3    0    0    0   2.2408644114E+01   5.0973600965E+01   6.9982754470E+01   8.9989117395E+01   1.0000000000E+01  1.490E-09   1.
3000001    1    4    0    0    0  -9.2384046801E+00  -1.2625163753E+01   4.9450965306E+00   1.6437665908E+01   1.0000000000E+00     0.000  -1.
3000022   2   4   0   0   0   -1.3170239434E+01   -3.8348437212E+01   2.5298615464E+00   4.0626598957E+01   2.5000000000E-01   1.731226E+00   0.
3000001    1    5    0    0    0   3.0950108969E+00   1.4866580507E+01   1.4400580588E+01   2.0951635490E+01   1.0000000000E+00     0.000  -1.
3000022   2   5   0   0   0   1.9313633217E+01   3.6107020458E+01   5.5582173882E+01   6.9037481905E+01   2.5000000000E-01   2.685855E+01   0.
13    1    7    0    0    0  -6.0175007053E+00  -1.7637419281E+01   1.2183428500E+00   1.8675766595E+01   1.0500000000E-01     0.000   1.
-13    1    7    0    0    0  -7.1527387283E+00  -2.0711017932E+01   1.3115186964E+00   2.1950832362E+01   1.0500000000E-01     0.000  -1.
13    1    9    0    0    0   1.1768017888E+01   2.2081354947E+01   3.3881384897E+01   4.2119256271E+01   1.0500000000E-01     0.000   1.
-13    1    9    0    0    0   7.5456153286E+00   1.4025665511E+01   2.1700788985E+01   2.6918225634E+01   1.0500000000E-01     0.000  -1.
</event>
<event>
 13   1  9.2978750E-05  1.2500000E+02  7.5467720E-03  1.2380620E-01
   21   -1    0    0  502  501   0.0000000000E+00   0.0000000000E+00   2.3692958221E+01   2.3692958221E+01   0.0000000000E+00     0.000  -1.
   21   -1    0    0  501  502   0.0000000000E+00   0.0000000000E+00  -1.6486966142E+02   1.6486966142E+02   0.0000000000E+00     0.000  -1.
   25    2    1    2    0    0   0.0000000000E+00   0.0000000000E+00  -1.4117670320E+02   1.8856261964E+02   1.2500000000E+02  3.003E-08  -1.
3000002    2    3    0    0    0  -4.7502496105E+01   1.2638149005E+01  -1.4346546991E+01   5.2173109521E+01   1.0000000000E+01  1.415E-11  -1.
3000002    2    3    0    0    0   4.7502496105E+01  -1.2638149005E+01  -1.2683015621E+02   1.3638951012E+02   1.0000000000E+01  2.177E-10  -1.
3000001    1    4    0    0    0  -6.3645370742E+00   1.5712138824E+00  -5.6079959819E+00   8.6847949985E+00   1.0000000000E+00     0.000   1.
3000022   2   4   0   0   0   -4.1137959031E+01   1.1066935123E+01   -8.7385510087E+00   4.3488314522E+01   2.5000000000E-01   3.586392E-04   0.
3000001    1    5    0    0    0   2.2046704397E+00   4.4091160988E-02  -2.6062988767E+00   3.5574301978E+00   1.0000000000E+00     0.000  -1.
3000022   2   5   0   0   0   4.5297825665E+01   -1.2682240166E+01   -1.2422385733E+02   1.3283207992E+02   2.5000000000E-01   3.976009E+00   0.
13    1    7    0    0    0  -2.4600898682E+01   6.6834489991E+00  -5.2333596981E+00   2.6024445915E+01   1.0500000000E-01     0.000  -1.
-13    1    7    0    0    0  -1.6537060349E+01   4.3834861237E+00  -3.5051913105E+00   1.7463868607E+01   1.0500000000E-01     0.000   1.
13    1    9    0    0    0   2.0061253189E+01  -5.5542951861E+00  -5.4892076030E+01   5.8706516763E+01   1.0500000000E-01     0.000  -1.
-13    1    9    0    0    0   2.5236572477E+01  -7.1279449801E+00  -6.9331781303E+01   7.4125563159E+01   1.0500000000E-01     0.000   1.
</event>
<event>
 13   1  9.2978750E-05  1.2500000E+02  7.5467720E-03  1.2380620E-01
   21   -1    0    0  502  501   0.0000000000E+00   0.0000000000E+00   1.8797466980E+02   1.8797466980E+02   0.0000000000E+00     0.000   1.
   21   -1    0    0  501  502   0.0000000000E+00   0.0000000000E+00  -2.0780725425E+01   2.0780725425E+01   0.0000000000E+00     0.000   1.
   25    2    1    2    0    0   0.0000000000E+00   0.0000000000E+00   1.6719394438E+02   2.0875539523E+02   1.2500000000E+02  6.650E-08  -1.
3000002    2    3    0    0    0   3.7026621882E+00  -6.1531932761E+01   7.9384772555E+01   1.0100411165E+02   1.0000000000E+01  4.275E-10   1.
3000002    2    3    0    0    0  -3.7026621882E+00   6.1531932761E+01   8.7809171825E+01   1.0775128358E+02   1.0000000000E+01  2.633E-11   1.
3000001    1    4    0    0    0  -1.8831208068E+00  -4.3898059214E+01   5.5761005350E+01   7.0999122983E+01   1.0000000000E+00     0.000   1.
3000022   2   4   0   0   0   5.5857829950E+00   -1.7633873547E+01   2.3623767205E+01   3.0004988667E+01   2.5000000000E-01   1.249492E+00   0.
3000001    1    5    0    0    0  -4.3485303473E+00   3.6394971983E+01   4.4389412420E+01   5.7575373527E+01   1.0000000000E+00     0.000   1.
3000022   2   5   0   0   0   6.4586815915E-01   2.5136960778E+01   4.3419759405E+01   5.0175910053E+01   2.5000000000E-01   2.416177E+00   0.
13    1    7    0    0    0   2.4751034374E+00  -7.6090403296E+00   1.0255106791E+01   1.3007761993E+01   1.0500000000E-01     0.000   1.
-13    1    7    0    0    0   3.1106795577E+00  -1.0024833217E+01   1.3368660414E+01   1.6997226674E+01   1.0500000000E-01     0.000  -1.
13    1    9    0    0    0   2.4712312251E-01   1.2048289115E+01   2.0756770295E+01   2.4001601583E+01   1.0500000000E-01     0.000  -1.
-13    1    9    0    0    0   3.9874503664E-01   1.3088671662E+01   2.2662989110E+01   2.6174308470E+01   1.0500000000E-01     0.000   1.
</event>
<event>
 13   1  9.2978750E-05  1.2500000E+02  7.5467720E-03  1.2380620E-01
   21   -1    0    0  502  501   0.0000000000E+00   0.0000000000E+00   2.6660796658E+02   2.6660796658E+02   0.0000000000E+00     0.000   1.
   21   -1    0    0  501  502   0.0000000000E+00   0.0000000000E+00  -1.4651662702E+01   1.4651662702E+01   0.0000000000E+00     0.000   1.
   25    2    1    2    0    0   0.0000000000E+00   0.0000000000E+00   2.5195630388E+02   2.8125962928E+02   1.2500000000E+02  1.766E-09  -1.
3000002    2    3    0    0    0  -5.4901513569E+01  -2.5051232667E+01   1.5483792709E+02   1.6648280427E+02   1.0000000000E+01  9.388E-11  -1.
3000002    2    3    0    0    0   5.4901513569E+01   2.5051232667E+01   9.7118376788E+01   1.1477682501E+02   1.0000000000E+01  2.168E-10  -1.
3000001    1    4    0    0    0  -3.2598590127E+01  -1.1098566618E+01   9.7192714737E+01   1.0311774851E+02   1.0000000000E+00     0.000   1.
3000022   2   4   0   0   0   -2.2302923442E+01   -1.3952666049E+01   5.7645212354E+01   6.3365055759E+01   2.5000000000E-01   1.125090E+01   0.
3000001    1    5    0    0    0   8.3675360398E+00   1.9047464874E+00   9.0198495548E+00   1.2490052224E+01   1.0000000000E+00     0.000   1.
3000022   2   5   0   0   0   4.6533977529E+01   2.3146486180E+01   8.8098527234E+01   1.0228677279E+02   2.5000000000E-01   9.849682E+00   0.
13    1    7    0    0    0  -1.4170628859E+01  -8.8991035474E+00   3.6787995651E+01   4.0414952867E+01   1.0500000000E-01     0.000  -1.
-13    1    7    0    0    0  -8.1322945825E+00  -5.0535625015E+00   2.0857216703E+01   2.2950102892E+01   1.0500000000E-01     0.000   1.
13    1    9    0    0    0   2.4503905954E+01   1.2215927993E+01   4.6287937611E+01   5.3779684798E+01   1.0500000000E-01     0.000   1.
-13    1    9    0    0    0   2.2030071575E+01   1.0930558187E+01   4.1810589622E+01   4.8507087992E+01   1.0500000000E-01     0.000  -1.
</event>
<event>
 13   1  9.2978750E-05  1.2500000E+02  7.5467720E-03  1.2380620E-01
   21   -1    0    0  502  501   0.0000000000E+00   0.0000000000E+00   4.9184942728E+01   4.9184942728E+01   0.0000000000E+00     0.000  -1.
   21   -1    0    0  501  502   0.0000000000E+00   0.0000000000E+00  -7.9419630956E+01   7.9419630956E+01   0.0000000000E+00     0.000  -1.
   25    2    1    2    0    0   0.0000000000E+00   0.0000000000E+00  -3.0234688228E+01   1.2860457368E+02   1.2500000000E+02  8.935E-09  -1.
3000002    2    3    0    0    0   5.9966590225E+01   6.2074758223E+00  -1.6350578646E+00   6.1132627242E+01   1.0000000000E+01  7.487E-11  -1.
3000002    2    3    0    0    0  -5.9966590225E+01  -6.2074758223E+00  -2.8599630363E+01   6.7471946438E+01   1.0000000000E+01  3.702E-10  -1.
3000001    1    4    0    0    0   8.9779954100E+00   4.4564977357E+00   2.8868460922E-01   1.0077108338E+01   1.0000000000E+00     0.000   1.
3000022   2   4   0   0   0   5.0988594815E+01   1.7509780866E+00   -1.9237424738E+00   5.1055518904E+01   2.5000000000E-01   6.880317E+00   0.
3000001    1    5    0    0    0  -4.0066221526E+01  -8.7540887987E+00  -1.8334116750E+01   4.4934129735E+01   1.0000000000E+00     0.000  -1.
3000022   2   5   0   0   0   -1.9900368699E+01   2.5466129763E+00   -1.0265513613E+01   2.2537816703E+01   2.5000000000E-01   5.473347E+00   0.
13    1    7    0    0    0   2.3629379469E+01   8.7260008103E-01  -9.1956145436E-01   2.3663592780E+01   1.0500000000E-01     0.000   1.
-13    1    7    0    0    0   2.7359215345E+01   8.7837800559E-01  -1.0041810194E+00   2.7391926124E+01   1.0500000000E-01     0.000  -1.
13    1    9    0    0    0  -6.4315174754E+00   8.6198361228E-01  -3.3587180298E+00   7.3074923597E+00   1.0500000000E-01     0.000   1.
-13    1    9    0    0    0  -1.3468851224E+01   1.6846293641E+00  -6.9067955837E+00   1.5230324344E+01   1.0500000000E-01     0.000  -1.
</event>
<event>
 13   1  9.2978750E-05  1.2500000E+02  7.5467720E-03  1.2380620E-01
   21   -1    0    0  502  501   0.0000000000E+00   0.0000000000E+00   3.0348688376E+01   3.0348688376E+01   0.0000000000E+00     0.000   1.
   21   -1    0    0  501  502   0.0000000000E+00   0.0000000000E+00  -1.2871231704E+02   1.2871231704E+02   0.0000000000E+00     0.000   1.
   25    2    1    2    0    0   0.0000000000E+00   0.0000000000E+00  -9.8363628662E+01   1.5906100542E+02   1.2500000000E+02  1.952E-08  -1.
3000002    2    3    0    0    0   4.4520718317E+01  -3.6413634916E+01  -2.0779298753E+01   6.1966332988E+01   1.0000000000E+01  6.838E-11   1.
3000002    2    3    0    0    0  -4.4520718317E+01   3.6413634916E+01  -7.7584329909E+01   9.7094672432E+01   1.0000000000E+01  1.307E-09   1.
3000001    1    4    0    0    0   4.2542840776E+01  -3.1151723767E+01  -1.9162892904E+01   5.6111849545E+01   1.0000000000E+00     0.000   1.
3000022   2   4   0   0   0   1.9778775415E+00   -5.2619111495E+00   -1.6164058495E+00   5.8544834431E+00   2.5000000000E-01   1.441293E+00   0.
3000001    1    5    0    0    0  -2.0311550052E+01   1.0842826174E+01  -2.7699484373E+01   3.6033142792E+01   1.0000000000E+00     0.000   1.
3000022   2   5   0   0   0   -2.4209168265E+01   2.5570808742E+01   -4.9884845536E+01   6.1061529640E+01   2.5000000000E-01   9.497715E-01   0.
13    1    7    0    0    0   1.3521520858E+00  -3.6269152850E+00  -1.0628200732E+00   4.0154005100E+00   1.0500000000E-01     0.000   1.
-13    1    7    0    0    0   6.2572545572E-01  -1.6349958646E+00  -5.5358577630E-01   1.8390829331E+00   1.0500000000E-01     0.000  -1.
13    1    9    0    0    0  -1.0731594649E+01   1.1428942346E+01  -2.2237712554E+01   2.7208725283E+01   1.0500000000E-01     0.000  -1.
-13    1    9    0    0    0  -1.3477573616E+01   1.4141866397E+01  -2.7647132981E+01   3.3852804357E+01   1.0500000000E-01     0.000   1.
</event>
<event>
 13   1  9.2978750E-05  1.2500000E+02  7.5467720E-03  1.2380620E-01
   21   -1    0    0  502  501   0.0000000000E+00   0.0000000000E+00   2.2872005053E+02   2.2872005053E+02   0.0000000000E+00     0.000   1.
   21   -1    0    0  501  502   0.0000000000E+00   0.0000000000E+00  -1.7078738794E+01   1.7078738794E+01   0.0000000000E+00     0.000   1.
   25    2    1    2    0    0   0.0000000000E+00   0.0000000000E+00   2.1164131173E+02   2.4579878932E+02   1.2500000000E+02  1.586E-07  -1.
3000002    2    3    0    0    0   5.0216219734E+01   3.5799175623E+01   1.0241459740E+02   1.1996665979E+02   1.0000000000E+01  1.152E-09  -1.
3000002    2    3    0    0    0  -5.0216219734E+01  -3.5799175623E+01   1.0922671433E+02   1.2583212953E+02   1.0000000000E+01  1.192E-09  -1.
3000001    1    4    0    0    0   3.8834266565E+00   4.8596010643E+00   1.5458683712E+01   1.6693340804E+01   1.0000000000E+00     0.000   1.
3000022   2   4   0   0   0   4.6332793078E+01   3.0939574559E+01   8.6955913689E+01   1.0327331898E+02   2.5000000000E-01   8.769719E+00   0.
3000001    1    5    0    0    0  -4.6520733729E+01  -2.9546910007E+01   9.8543631411E+01   1.1291167278E+02   1.0000000000E+00     0.000  -1.
3000022   2   5   0   0   0   -3.6954860054E+00   -6.2522656159E+00   1.0683082918E+01   1.2920456756E+01   2.5000000000E-01   3.017833E+00   0.
13    1    7    0    0    0   2.9573250422E+01   1.9812355107E+01   5.5600548999E+01   6.6019229240E+01   1.0500000000E-01     0.000   1.
-13    1    7    0    0    0   1.6759542656E+01   1.1127219452E+01   3.1355364690E+01   3.7254089743E+01   1.0500000000E-01     0.000  -1.
13    1    9    0    0    0  -1.9039568331E+00  -3.2702984669E+00   5.4541724653E+00   6.6391961838E+00   1.0500000000E-01     0.000  -1.
-13    1    9    0    0    0  -1.7915291722E+00  -2.9819671491E+00   5.2289104524E+00   6.2812605719E+00   1.0500000000E-01     0.000   1.
</event>
<event>
 13   1  9.2978750E-05  1.2500000E+02  7.5467720E-03  1.2380620E-01
   21   -1    0    0  502  501   0.0000000000E+00   0.0000000000E+00   1.5418427411E+01   1.5418427411E+01   0.0000000000E+00     0.000   1.
   21   -1    0    0  501  502   0.0000000000E+00   0.0000000000E+00  -2.5334944323E+02   2.5334944323E+02   0.0000000000E+00     0.000   1.
   25    2    1    2    0    0   0.0000000000E+00   0.0000000000E+00  -2.3793101581E+02   2.6876787064E+02   1.2500000000E+02  1.175E-07  -1.
3000002    2    3    0    0    0   1.0756528617E+01   3.3936374572E+01  -1.0625831771E+01   3.8474520501E+01   1.0000000000E+01  4.434E-10  -1.
3000002    2    3    0    0    0  -1.0756528617E+01  -3.3936374572E+01  -2.2730518404E+02   2.3029335014E+02   1.0000000000E+01  6.570E-10  -1.
3000001    1    4    0    0    0   5.0133997725E+00   9.4746925946E+00  -7.5709627339E+00   1.3161438134E+01   1.0000000000E+00     0.000   1.
3000022   2   4   0   0   0   5.7431288440E+00   2.4461681978E+01   -3.0548690369E+00   2.5313082367E+01   2.5000000000E-01   1.243016E-01   0.
3000001    1    5    0    0    0  -8.0798390761E+00  -2.2340074582E+01  -1.2023885263E+02   1.2256730565E+02   1.0000000000E+00     0.000  -1.
3000022   2   5   0   0   0   -2.6766895404E+00   -1.1596299991E+01   -1.0706633141E+02   1.0772604449E+02   2.5000000000E-01   3.209386E-01   0.
13    1    7    0    0    0   1.9020562118E+00   8.0020064369E+00  -9.5255212645E-01   8.2805981307E+00   1.0500000000E-01     0.000  -1.
-13    1    7    0    0    0   3.8410726323E+00   1.6459675541E+01  -2.1023169105E+00   1.7032484236E+01   1.0500000000E-01     0.000   1.
13    1    9    0    0    0  -2.0016638234E+00  -8.7588235969E+00  -8.0702294941E+01   8.1200954937E+01   1.0500000000E-01     0.000   1.
-13    1    9    0    0    0  -6.7502571696E-01  -2.8374763938E+00  -2.6364036470E+01   2.6525089556E+01   1.0500000000E-01     0.000  -1.
</event>
<event>
 13   1  9.2978750E-05  1.2500000E+02  7.5467720E-03  1.2380620E-01
   21   -1    0    0  502  501   0.0000000000E+00   0.0000000000E+00   1.2464161925E+01   1.2464161925E+01   0.0000000000E+00     0.000   1.
   21   -1    0    0  501  502   0.0000000000E+00   0.0000000000E+00  -3.1339852799E+02   3.1339852799E+02   0.0000000000E+00     0.000   1.
   25    2    1    2    0    0   0.0000000000E+00   0.0000000000E+00  -3.0093436606E+02   3.2586268991E+02   1.2500000000E+02  3.177E-08  -1.
3000002    2    3    0    0    0   5.7011256663E+01  -1.6768323286E+01  -1.0725312548E+02   1.2302314001E+02   1.0000000000E+01  8.914E-10  -1.
3000002    2    3    0    0    0  -5.7011256663E+01   1.6768323286E+01  -1.9368124058E+02   2.0283954990E+02   1.0000000000E+01  9.241E-10  -1.
3000001    1    4    0    0    0   4.5490515455E+01  -9.6963686850E+00  -8.7262783939E+01   9.8889837813E+01   1.0000000000E+00     0.000  -1.
3000022   2   4   0   0   0   1.1520741208E+01   -7.0719546012E+00   -1.9990341542E+01   2.4133302195E+01   2.5000000000E-01   5.171134E+00   0.
3000001    1    5    0    0    0  -5.1956825494E+01   1.4129684060E+01  -1.6403298479E+02   1.7264698024E+02   1.0000000000E+00     0.000  -1.
3000022   2   5   0   0   0   -5.0544311686E+00   2.6386392261E+00   -2.9648255793E+01   3.0192569665E+01   2.5000000000E-01   3.828060E+00   0.
13    1    7    0    0    0   6.3786863845E+00  -3.8378304816E+00  -1.0994361465E+01   1.3277936278E+01   1.0500000000E-01     0.000  -1.
-13    1    7    0    0    0   5.1420548236E+00  -3.2341241197E+00  -8.9959800776E+00   1.0855365917E+01   1.0500000000E-01     0.000   1.
13    1    9    0    0    0  -2.6179653292E+00   1.3044849736E+00  -1.4997844371E+01   1.5280765174E+01   1.0500000000E-01     0.000   1.
-13    1    9    0    0    0  -2.4364658395E+00   1.3341542525E+00  -1.4650411422E+01   1.4911804492E+01   1.0500000000E-01     0.000  -1.
</event>
<event>
 13   1  9.2978750E-05  1.2500000E+02  7.5467720E-03  1.2380620E-01
   21   -1    0    0  502  501   0.0000000000E+00   0.0000000000E+00   9.0141444488E+01   9.0141444488E+01   0.0000000000E+00     0.000  -1.
   21   -1    0    0  501  502   0.0000000000E+00   0.0000000000E+00  -4.3334672771E+01   4.3334672771E+01   0.0000000000E+00     0.000  -1.
   25    2    1    2    0    0   0.0000000000E+00   0.0000000000E+00   4.6806771717E+01   1.3347611726E+02   1.2500000000E+02  1.356E-08  -1.
3000002    2    3    0    0    0  -5.7554506617E+01   9.7906512278E+00   2.1040925198E+00   5.9268923466E+01   1.0000000000E+01  2.583E-10  -1.
3000002    2    3    0    0    0   5.7554506617E+01  -9.7906512278E+00   4.4702679197E+01   7.4207193794E+01   1.0000000000E+01  8.139E-10  -1.
3000001    1    4    0    0    0  -4.2456365948E+01   5.8483778157E+00   5.7208185800E+00   4.3248980310E+01   1.0000000000E+00     0.000  -1.
3000022   2   4   0   0   0   -1.5098140669E+01   3.9422734121E+00   -3.6167260602E+00   1.6019943156E+01   2.5000000000E-01   3.190442E+00   0.
3000001    1    5    0    0    0   1.9093151440E+01   1.4063102140E+00   1.4736823392E+01   2.4180572863E+01   1.0000000000E+00     0.000   1.
3000022   2   5   0   0   0   3.8461355177E+01   -1.1196961442E+01   2.9965855806E+01   5.0026620931E+01   2.5000000000E-01   3.588092E+00   0.
13    1    7    0    0    0  -7.5949723239E+00   2.0420970477E+00  -1.8604259795E+00   8.0824485633E+00   1.0500000000E-01     0.000   1.
-13    1    7    0    0    0  -7.5031683452E+00   1.9001763644E+00  -1.7563000807E+00   7.9374945925E+00   1.0500000000E-01     0.000  -1.
13    1    9    0    0    0   2.6376708066E+01  -7.6289023617E+00   2.0524520381E+01   3.4281158695E+01   1.0500000000E-01     0.000   1.
-13    1    9    0    0    0   1.2084647111E+01  -3.5680590801E+00   9.4413354246E+00   1.5745462235E+01   1.0500000000E-01     0.000  -1.
</event>
<event>
 13   1  9.2978750E-05  1.2500000E+02  7.5467720E-03  1.2380620E-01
   21   -1    0    0  502  501   0.0000000000E+00   0.0000000000E+00   2.4726074307E+02   2.4726074307E+02   0.0000000000E+00     0.000   1.
   21   -1    0    0  501  502   0.0000000000E+00   0.0000000000E+00  -1.5798100222E+01   1.5798100222E+01   0.0000000000E+00     0.000   1.
   25    2    1    2    0    0   0.0000000000E+00   0.0000000000E+00   2.3146264285E+02   2.6305884329E+02   1.2500000000E+02  2.745E-09  -1.
3000002    2    3    0    0    0   4.1683285264E+01  -8.4092416062E+00   2.1662694087E+01   4.8759449647E+01   1.0000000000E+01  4.324E-10   1.
3000002    2    3    0    0    0  -4.1683285264E+01   8.4092416062E+00   2.0979994876E+02   2.1429939364E+02   1.0000000000E+01  4.000E-10   1.
3000001    1    4    0    0    0   1.2374206069E+01  -7.1442139000E+00   7.8405381782E+00   1.6328956091E+01   1.0000000000E+00     0.000  -1.
3000022   2   4   0   0   0   2.9309079195E+01   -1.2650277062E+00   1.3822155909E+01   3.2430493556E+01   2.5000000000E-01   1.160028E-01   0.
3000001    1    5    0    0    0  -3.7792950176E+01   9.1343229315E+00   1.7475720812E+02   1.7903302692E+02   1.0000000000E+00     0.000  -1.
3000022   2   5   0   0   0   -3.8903350874E+00   -7.2508132532E-01   3.5042740645E+01   3.5266366724E+01   2.5000000000E-01   6.505113E+00   0.
13    1    7    0    0    0   1.3802045874E+01  -5.3706803163E-01   6.5447636100E+00   1.5284955613E+01   1.0500000000E-01     0.000   1.
-13    1    7    0    0    0   1.5507033320E+01  -7.2795967455E-01   7.2773922988E+00   1.7145537943E+01   1.0500000000E-01     0.000  -1.
13    1    9    0    0    0  -1.9457180196E+00  -3.7020449902E-01   1.8138109297E+01   1.8246229854E+01   1.0500000000E-01     0.000   1.
-13    1    9    0    0    0  -1.9446170678E+00  -3.5487682630E-01   1.6904631347E+01   1.7020136871E+01   1.0500000000E-01     0.000  -1.
</event>
<event>
 13   1  9.2978750E-05  1.2500000E+02  7.5467720E-03  1.2380620E-01
   21   -1    0    0  502  501   0.0000000000E+00   0.0000000000E+00   1.0084997657E+01   1.0084997657E+01   0.0000000000E+00     0.000   1.
   21   -1    0    0  501  502   0.0000000000E+00   0.0000000000E+00  -3.8733276229E+02   3.8733276229E+02   0.0000000000E+00     0.000   1.
   25    2    1    2    0    0   0.0000000000E+00   0.0000000000E+00  -3.7724776463E+02   3.9741775994E+02   1.2500000000E+02  1.359E-08  -1.
3000002    2    3    0    0    0  -3.9116946642E+01  -4.1641575985E+01  -2.6264819981E+02   2.6897626889E+02   1.0000000000E+01  5.391E-10  -1.
3000002    2    3    0    0    0   3.9116946642E+01   4.1641575985E+01  -1.1459956482E+02   1.2844149105E+02   1.0000000000E+01  1.011E-09  -1.
3000001    1    4    0    0    0  -1.9294792627E+01  -2.7609639976E+01  -1.4954791523E+02   1.5329761966E+02   1.0000000000E+00     0.000  -1.
3000022   2   4   0   0   0   -1.9822154015E+01   -1.4031936009E+01   -1.1310028457E+02   1.1567864923E+02   2.5000000000E-01   5.287207E+00   0.
3000001    1    5    0    0    0   3.6615913077E+01   3.4883235616E+01  -1.0360487161E+02   1.1529325496E+02   1.0000000000E+00     0.000  -1.
3000022   2   5   0   0   0   2.5010335648E+00   6.7583403690E+00   -1.0994693213E+01   1.3148236090E+01   2.5000000000E-01   2.258910E-01   0.
13    1    7    0    0    0  -8.1682538545E+00  -5.7055779801E+00  -4.6465032308E+01   4.7521408266E+01   1.0500000000E-01     0.000   1.
-13    1    7    0    0    0  -1.1653900160E+01  -8.3263580290E+00  -6.6635252266E+01   6.8157240969E+01   1.0500000000E-01     0.000  -1.
13    1    9    0    0    0   1.6257327829E+00   4.4796397303E+00  -7.3515709740E+00   8.7616665070E+00   1.0500000000E-01     0.000  -1.
-13    1    9    0    0    0   8.7530078198E-01   2.2787006387E+00  -3.6431222385E+00   4.3865695828E+00   1.0500000000E-01     0.000   1.
</event>
<event>
 13   1  9.2978750E-05  1.2500000E+02  7.5467720E-03  1.2380620E-01
   21   -1    0    0  502  501   0.0000000000E+00   0.0000000000E+00   1.4871984461E+01   1.4871984461E+01   0.0000000000E+00     0.000   1.
   21   -1    0    0  501  502   0.0000000000E+00   0.0000000000E+00  -2.6265828949E+02   2.6265828949E+02   0.0000000000E+00     0.000   1.
   25    2    1    2    0    0   0.0000000000E+00   0.0000000000E+00  -2.4778630503E+02   2.7753027395E+02   1.2500000000E+02  2.273E-08  -1.
3000002    2    3    0    0    0  -1.3856071315E+01   2.9168290407E+01  -7.1778666381E+00   3.4558669636E+01   1.0000000000E+01  1.952E-09   1.
3000002    2    3    0    0    0   1.3856071315E+01  -2.9168290407E+01  -2.4060843839E+02   2.4297160431E+02   1.0000000000E+01  5.970E-10   1.
3000001    1    4    0    0    0  -2.5356681721E+00   3.8616813920E+00  -4.7934940239E+00   6.7319968219E+00   1.0000000000E+00     0.000  -1.
3000022   2   4   0   0   0   -1.1320403143E+01   2.5306609015E+01   -2.3843726142E+00   2.7826672814E+01   2.5000000000E-01   4.381748E+00   0.
3000001    1    5    0    0    0   9.4427309483E+00  -9.8860896044E+00  -1.1516281775E+02   1.1597574974E+02   1.0000000000E+00     0.000   1.
3000022   2   5   0   0   0   4.4133403664E+00   -1.9282200802E+01   -1.2544562064E+02   1.2699585457E+02   2.5000000000E-01   2.347420E+00   0.
13    1    7    0    0    0  -4.6350833234E+00   1.0263607747E+01  -1.0182396010E+00   1.1308115594E+01   1.0500000000E-01     0.000   1.
-13    1    7    0    0    0  -6.6853198192E+00   1.5043001268E+01  -1.3661330132E+00   1.6518557221E+01   1.0500000000E-01     0.000  -1.
13    1    9    0    0    0   2.2984082448E+00  -1.0295869189E+01  -6.7132930451E+01   6.7956817015E+01   1.0500000000E-01     0.000  -1.
-13    1    9    0    0    0   2.1149321216E+00  -8.9863316137E+00  -5.8312690187E+01   5.9039037557E+01   1.0500000000E-01     0.000   1.
</event>
<event>
 13   1  9.2978750E-05  1.2500000E+02  7.5467720E-03  1.2380620E-01
   21   -1    0    0  502  501   0.0000000000E+00   0.0000000000E+00   5.5884714211E+01   5.5884714211E+01   0.0000000000E+00     0.000   1.
   21   -1    0    0  501  502   0.0000000000E+00   0.0000000000E+00  -6.9898362283E+01   6.9898362283E+01   0.0000000000E+00     0.000   1.
   25    2    1    2    0    0   0.0000000000E+00   0.0000000000E+00  -1.4013648072E+01   1.2578307649E+02   1.2500000000E+02  1.262E-08  -1.
3000002    2    3    0    0    0   5.0333194503E+01  -1.3002526228E+01  -4.0437742941E+01   6.6616118255E+01   1.0000000000E+01  1.278E-09  -1.
3000002    2    3    0    0    0  -5.0333194503E+01   1.3002526228E+01   2.6424094869E+01   5.9166958235E+01   1.0000000000E+01  2.214E-10  -1.
3000001    1    4    0    0    0   3.9545522671E+01  -8.0885287872E+00  -3.5531276536E+01   5.3784238151E+01   1.0000000000E+00     0.000  -1.
3000022   2   4   0   0   0   1.0787671832E+01   -4.9139974405E+00   -4.9064664048E+00   1.2831880103E+01   2.5000000000E-01   2.675949E+00   0.
3000001    1    5    0    0    0  -1.0340439233E+01   6.8666944786E+00   6.9835443273E+00   1.4277467141E+01   1.0000000000E+00     0.000   1.
3000022   2   5   0   0   0   -3.9992755270E+01   6.1358317491E+00   1.9440550542E+01   4.4889491094E+01   2.5000000000E-01   7.399241E+00   0.
13    1    7    0    0    0   3.3518096845E+00  -1.5755968735E+00  -1.5557216393E+00   4.0185107301E+00   1.0500000000E-01     0.000  -1.
-13    1    7    0    0    0   7.4358621478E+00  -3.3384005669E+00  -3.3507447656E+00   8.8133693733E+00   1.0500000000E-01     0.000   1.
13    1    9    0    0    0  -1.8026413702E+01   2.7796184793E+00   8.6913234126E+00   2.0204652868E+01   1.0500000000E-01     0.000   1.
-13    1    9    0    0    0  -2.1966341568E+01   3.3562132698E+00   1.0749227129E+01   2.4684838226E+01   1.0500000000E-01     0.000  -1.
</event>
<event>
 13   1  9.2978750E-05  1.2500000E+02  7.5467720E-03  1.2380620E-01
   21   -1    0    0  502  501   0.0000000000E+00   0.0000000000E+00   1.1981945551E+02   1.1981945551E+02   0.0000000000E+00     0.000   1.
   21   -1    0    0  501  502   0.0000000000E+00   0.0000000000E+00  -3.2601132958E+01   3.2601132958E+01   0.0000000000E+00     0.000   1.
   25    2    1    2    0    0   0.0000000000E+00   0.0000000000E+00   8.7218322550E+01   1.5242058847E+02   1.2500000000E+02  9.375E-08  -1.
3000002    2    3    0    0    0  -7.2751761057E+00   5.3352510236E+01   6.8896483946E+00   5.5198603161E+01   1.0000000000E+01  1.030E-09   1.
3000002    2    3    0    0    0   7.2751761057E+00  -5.3352510236E+01   8.0328674155E+01   9.7221985309E+01   1.0000000000E+01  1.083E-10   1.
3000001    1    4    0    0    0  -7.9045812097E+00   4.6706565214E+01   3.0177583801E+00   4.7477284083E+01   1.0000000000E+00     0.000   1.
3000022   2   4   0   0   0   6.2940510404E-01   6.6459450222E+00   3.8718900146E+00   7.7213190783E+00   2.5000000000E-01   4.113760E+00   0.
3000001    1    5    0    0    0   1.0410254094E-01  -3.1668375779E+01   5.1127364559E+01   6.0149017187E+01   1.0000000000E+00     0.000   1.
3000022   2   5   0   0   0   7.1710735647E+00   -2.1684134458E+01   2.9201309596E+01   3.7072968122E+01   2.5000000000E-01   1.998600E+00   0.
13    1    7    0    0    0   4.2340483642E-01   3.8040679273E+00   2.1988154479E+00   4.4154296309E+00   1.0500000000E-01     0.000   1.
-13    1    7    0    0    0   2.0600026761E-01   2.8418770949E+00   1.6730745666E+00   3.3058894474E+00   1.0500000000E-01     0.000  -1.
13    1    9    0    0    0   3.8246796395E+00  -1.1765813248E+01   1.5854994386E+01   2.0111051880E+01   1.0500000000E-01     0.000  -1.
-13    1    9    0    0    0   3.3463939253E+00  -9.9183212099E+00   1.3346315210E+01   1.6961916242E+01   1.0500000000E-01     0.000   1.
</event>
